
Running Job 1 of 1 qchem_batch_opt.inp
qchem qchem_batch_opt.inp_31953.0 /tmp/songzl/qchem_baker_set/qchem31953/ 1
/apps/apps/qchem/qc51/exe/qcprog.exe_s qchem_batch_opt.inp_31953.0 /tmp/songzl/qchem_baker_set/qchem31953/
Check license passed

                  Welcome to Q-Chem
     A Quantum Leap Into The Future Of Chemistry


 Q-Chem 5.1, Q-Chem, Inc., Pleasanton, CA (2018)

 Yihan Shao,  Zhengting Gan,  E. Epifanovsky,  A. T. B. Gilbert,  M. Wormit,  
 J. Kussmann,  A. W. Lange,  A. Behn,  Jia Deng,  Xintian Feng,  D. Ghosh,  
 M. Goldey,  P. R. Horn,  L. D. Jacobson,  I. Kaliman,  T. Kus,  A. Landau,  
 Jie Liu,  E. I. Proynov,  R. M. Richard,  R. P. Steele,  E. J. Sundstrom,  
 H. L. Woodcock III,  P. M. Zimmerman,  D. Zuev,  B. Albrecht,  E. Alguire,  
 S. A. Baeppler,  D. Barton,  Z. Benda,  Y. A. Bernard,  E. J. Berquist,  
 K. B. Bravaya,  H. Burton,  D. Casanova,  Chun-Min Chang,  Yunqing Chen,  
 A. Chien,  K. D. Closser,  M. P. Coons,  S. Coriani,  S. Dasgupta,  
 A. L. Dempwolff,  M. Diedenhofen,  Hainam Do,  R. G. Edgar,  Po-Tung Fang,  
 S. Faraji,  S. Fatehi,  Qingguo Feng,  K. D. Fenk,  J. Fosso-Tande,  
 Qinghui Ge,  A. Ghysels,  G. Gidofalvi,  J. Gomes,  J. Gonthier,  A. Gunina,  
 D. Hait,  M. W. D. Hanson-Heine,  P. H. P. Harbach,  A. W. Hauser,  
 J. E. Herr,  E. G. Hohenstein,  Z. C. Holden,  Kerwin Hui,  B. C. Huynh,  
 T.-C. Jagau,  Hyunjun Ji,  B. Kaduk,  K. Khistyaev,  Jaehoon Kim,  
 P. Klunzinger,  K. Koh,  D. Kosenkov,  L. Koulias,  T. Kowalczyk,  
 C. M. Krauter,  A. Kunitsa,  Ka Un Lao,  A. Laurent,  K. V. Lawler,  
 Joonho Lee,  D. Lefrancois,  S. Lehtola,  D. S. Levine,  Yi-Pei Li,  
 You-Sheng Lin,  Fenglai Liu,  E. Livshits,  A. Luenser,  P. Manohar,  
 E. Mansoor,  S. F. Manzer,  Shan-Ping Mao,  Yuezhi Mao,  N. Mardirossian,  
 A. V. Marenich,  T. Markovich,  L. A. Martinez-Martinez,  S. A. Maurer,  
 N. J. Mayhall,  S. C. McKenzie,  J.-M. Mewes,  A. F. Morrison,  
 J. W. Mullinax,  K. Nanda,  T. S. Nguyen-Beck,  R. Olivares-Amaya,  
 J. A. Parkhill,  T. M. Perrine,  F. Plasser,  P. Pokhilko,  S. Prager,  
 A. Prociuk,  E. Ramos,  D. R. Rehn,  F. Rob,  M. Schneider,  N. Sergueev,  
 S. M. Sharada,  S. Sharma,  D. W. Small,  T. Stauch,  T. Stein,  
 Yu-Chuan Su,  A. J. W. Thom,  A. Tkatchenko,  T. Tsuchimochi,  N. M. Tubman,  
 L. Vogt,  M. L. Vidal,  O. Vydrov,  M. A. Watson,  J. Wenzel,  
 M. de Wergifosse,  T. A. Wesolowski,  A. White,  J. Witte,  A. Yamada,  
 Jun Yang,  K. Yao,  S. Yeganeh,  S. R. Yost,  Zhi-Qiang You,  A. Zech,  
 Igor Ying Zhang,  Xing Zhang,  Yan Zhao,  Ying Zhu,  B. R. Brooks,  
 G. K. L. Chan,  C. J. Cramer,  M. S. Gordon,  W. J. Hehre,  A. Klamt,  
 M. W. Schmidt,  C. D. Sherrill,  D. G. Truhlar,  A. Aspuru-Guzik,  R. Baer,  
 A. T. Bell,  N. A. Besley,  Jeng-Da Chai,  A. E. DePrince, III,  
 R. A. DiStasio Jr.,  A. Dreuw,  B. D. Dunietz,  T. R. Furlani,  
 Chao-Ping Hsu,  Yousung Jung,  Jing Kong,  D. S. Lambrecht,  WanZhen Liang,  
 C. Ochsenfeld,  V. A. Rassolov,  L. V. Slipchenko,  J. E. Subotnik,  
 T. Van Voorhis,  J. M. Herbert,  A. I. Krylov,  P. M. W. Gill,  M. Head-Gordon

 Contributors to earlier versions of Q-Chem not listed above: 
 R. D. Adamson,  B. Austin,  J. Baker,  G. J. O. Beran,  K. Brandhorst,  
 S. T. Brown,  E. F. C. Byrd,  A. K. Chakraborty,  C.-L. Cheng,  
 Siu Hung Chien,  D. M. Chipman,  D. L. Crittenden,  H. Dachsel,  
 R. J. Doerksen,  A. D. Dutoi,  L. Fusti-Molnar,  W. A. Goddard III,  
 A. Golubeva-Zadorozhnaya,  S. R. Gwaltney,  G. Hawkins,  A. Heyden,  
 S. Hirata,  G. Kedziora,  F. J. Keil,  C. Kelley,  Jihan Kim,  R. A. King,  
 R. Z. Khaliullin,  P. P. Korambath,  W. Kurlancheek,  A. M. Lee,  M. S. Lee,  
 S. V. Levchenko,  Ching Yeh Lin,  D. Liotard,  R. C. Lochan,  I. Lotan,  
 P. E. Maslen,  N. Nair,  D. P. O'Neill,  D. Neuhauser,  E. Neuscamman,  
 C. M. Oana,  R. Olson,  B. Peters,  R. Peverati,  P. A. Pieniazek,  
 Y. M. Rhee,  J. Ritchie,  M. A. Rohrdanz,  E. Rosta,  N. J. Russ,  
 H. F. Schaefer III,  N. E. Schultz,  N. Shenvi,  A. C. Simmonett,  A. Sodt,  
 D. Stuck,  K. S. Thanthiriwatte,  V. Vanovschi,  Tao Wang,  A. Warshel,  
 C. F. Williams,  Q. Wu,  X. Xu,  W. Zhang

 Please cite Q-Chem as follows:
 Y. Shao et al., Mol. Phys. 113, 184-215 (2015)
 DOI: 10.1080/00268976.2014.952696

 Q-Chem 5.1.1 for Intel X86 EM64T Linux

 Parts of Q-Chem use Armadillo 8.300.2 (Tropical Shenanigans).
 http://arma.sourceforge.net/

 Q-Chem begins on Thu Apr  6 16:07:00 2023  

Host: 
0

     Scratch files written to /tmp/songzl/qchem_baker_set/qchem31953//
 Aug318 |scratch|qcdevops|jenkins|workspace|build_RNUM 6609   
Processing $rem in /apps/apps/qchem/qc51/config/preferences.
 MEM_TOTAL  1000 
The previous job contains 0 fragments, simply inherited here
Input Ideriv = 2
Curr. Ideriv = -1
Max.  Ideriv = 2

Checking the input file for inconsistencies... 	...done.

--------------------------------------------------------------
User input:
--------------------------------------------------------------
$molecule
READ ./zmat.inp
$end

$rem
mem_total               230000
mem_static              2048
job_type                optimization
basis                   6-31g**
method                  b3lyp
symmetry                false
sym_ignore              true
geom_opt_max_cycles     500
$end
--------------------------------------------------------------
 ----------------------------------------------------------------
             Standard Nuclear Orientation (Angstroms)
    I     Atom           X                Y                Z
 ----------------------------------------------------------------
    1      O       0.0000000000     0.0000000000     0.0000000000
    2      C       0.0000000000     0.0000000000     1.1700000000
    3      Cl      2.3350000000     0.0000000000     1.1700000000
    4      H       1.4142135624    -0.0000000000     2.5842135624
 ----------------------------------------------------------------
 Nuclear Repulsion Energy =    80.7370547963 hartrees
 There are       16 alpha and       16 beta electrons
 Requested basis set is 6-31G(d,p)
 There are 16 shells and 54 basis functions

 Total QAlloc Memory Limit 230000 MB
 Mega-Array Size      2002 MB
 MEM_STATIC part      2048 MB
 A cutoff of  1.0D-11 yielded    131 shell pairs
 There are      1562 function pairs
 
 -------------------------------------------------------
 OpenMP Integral Computing Module                       
 Release: version 1.0, May 2013, Q-Chem Inc. Pittsburgh 
 -------------------------------------------------------
 Integral Job Info:
 Integral job number is                      11
 Integral operator is                         1
 short-range coefficients                     0
 long-range coefficients              100000000
 Omega coefficients                           0
 if combine SR and LR in K                    0
 Integral screening is                        0
 Integral computing path is                   2
 max size of driver memory is            800000
 size of driver memory is                593474
 size of scratch memory is             15267112
 max col of scratch BK array               1296
 max len of scratch array in speh3          155
 max len of scratch index in speh4           18
 max int batch size is                      520
 min int batch size is                       52
 fixed nKL is                                52
 max L of basis functions is                  2
 order of int derivative is                   0
 number of shells is                         16
 number of basis is                          54
 number of cartesian basis is                54
 number of contracted shell pairs           131
 number of primitive shell pairs            754
 maxK2 (contraction) of shell pair           36
 max number of K2 of shell pair               1
 max number of CS2 of shell pair             13
 max number of PS2 of shell pair            108
 mem total for path MDJ                  511410
 -------------------------------------------------------
 Smallest overlap matrix eigenvalue = 7.04E-03

 Scale SEOQF with 1.000000e-01/1.000000e+00/1.000000e-01

 Standard Electronic Orientation quadrupole field applied
 Nucleus-field energy     =    -0.0000000007 hartrees
 Guess from superposition of atomic densities
 Warning:  Energy on first SCF cycle will be non-variational
 SAD guess density has 32.000000 electrons

 -----------------------------------------------------------------------
  General SCF calculation program by
  Eric Jon Sundstrom, Paul Horn, Yuezhi Mao, Dmitri Zuev, Alec White,
  David Stuck, Shaama M.S., Shane Yost, Joonho Lee, David Small,
  Daniel Levine, Susi Lehtola, Hugh Burton, Evgeny Epifanovsky
 -----------------------------------------------------------------------
 Exchange:     0.2000 Hartree-Fock + 0.0800 Slater + 0.7200 B88
 Correlation:  0.1900 VWN1RPA + 0.8100 LYP
 Using SG-1 standard quadrature grid
 using 8 threads for integral computing
 -------------------------------------------------------
 OpenMP Integral computing Module                
 Release: version 1.0, May 2013, Q-Chem Inc. Pittsburgh 
 -------------------------------------------------------
 -------------------------------------------------------
 OpenMP BLAS3 based DFT computing Module                
 Release: version 1.0, May 2013, Q-Chem Inc. Pittsburgh 
 -------------------------------------------------------
 A restricted SCF calculation will be
 performed using DIIS
 SCF converges when DIIS error is below 1.0e-08
 ---------------------------------------
  Cycle       Energy         DIIS error
 ---------------------------------------
    1    -574.1526677787      8.03e-02  
    2    -573.9534182434      1.36e-02  
    3    -573.6406151019      3.58e-02  
    4    -574.0160142524      2.96e-03  
    5    -574.0194829779      1.31e-03  
    6    -574.0201704007      2.67e-04  
    7    -574.0202003872      3.71e-05  
    8    -574.0202008578      6.12e-06  
    9    -574.0202008720      1.40e-06  
   10    -574.0202008729      2.09e-07  
   11    -574.0202008729      7.28e-08  
   12    -574.0202008729      1.56e-08  
   13    -574.0202008729      1.60e-09  Convergence criterion met
 ---------------------------------------
 SCF time:   CPU 4.47s  wall 1.00s 
 SCF   energy in the final basis set =     -574.0202008729
 Total energy in the final basis set =     -574.0202008729
 
 --------------------------------------------------------------
 
                    Orbital Energies (a.u.)
 --------------------------------------------------------------
 
 Alpha MOs
 -- Occupied --
******* -19.238 -10.310  -9.475  -7.239  -7.229  -7.229  -1.130
 -0.822  -0.565  -0.473  -0.449  -0.448  -0.366  -0.330  -0.294
 -- Virtual --
 -0.110  -0.035  -0.017   0.273   0.394   0.426   0.453   0.502
  0.528   0.565   0.637   0.701   0.723   0.807   0.827   0.837
  0.874   0.906   0.929   0.998   1.061   1.410   1.504   1.508
  1.521   1.625   1.925   1.927   1.958   2.156   2.262   2.344
  2.569   2.585   2.923   3.707   3.971   4.227
 --------------------------------------------------------------
 
          Ground-State Mulliken Net Atomic Charges

     Atom                 Charge (a.u.)
  ----------------------------------------
      1 O                    -0.212672
      2 C                     0.148423
      3 Cl                   -0.182017
      4 H                     0.246266
  ----------------------------------------
  Sum of atomic charges =    -0.000000

 -----------------------------------------------------------------
                    Cartesian Multipole Moments
 -----------------------------------------------------------------
    Charge (ESU x 10^10)
                -0.0000
    Dipole Moment (Debye)
         X      -0.6253      Y      -0.0000      Z       1.5518
       Tot       1.6730
    Quadrupole Moments (Debye-Ang)
        XX     -27.4445     XY      -0.0000     YY     -24.1288
        XZ       0.4524     YZ       0.0000     ZZ     -18.6503
    Octopole Moments (Debye-Ang^2)
       XXX    -104.5546    XXY      -0.0000    XYY     -32.3087
       YYY      -0.0000    XXZ     -28.7291    XYZ       0.0000
       YYZ     -23.9483    XZZ     -23.5943    YZZ       0.0000
       ZZZ     -53.0019
    Hexadecapole Moments (Debye-Ang^3)
      XXXX    -483.3407   XXXY      -0.0000   XXYY     -82.5324
      XYYY      -0.0000   YYYY     -23.9412   XXXZ    -136.9760
      XXYZ       0.0000   XYYZ     -39.8043   YYYZ      -0.0000
      XXZZ    -108.7020   XYZZ       0.0000   YYZZ     -39.2275
      XZZZ     -86.5646   YZZZ       0.0000   ZZZZ    -153.5000
 -----------------------------------------------------------------
 Calculating analytic gradient of the SCF energy
 Gradient of SCF Energy
            1           2           3           4
    1   0.0269816   0.0372611  -0.0180886  -0.0461541
    2   0.0000000  -0.0000000   0.0000000  -0.0000000
    3  -0.0524740   0.0659837  -0.0839447   0.0704350
 Max gradient component =       8.394E-02
 RMS gradient           =       4.443E-02
 Gradient time:  CPU 2.49 s  wall 0.32 s
 Geometry Optimization Parameters
   NAtoms,    NIC,     NZ,  NCons,   NDum,   NFix, NCnnct, MaxDiis
        4      14       4       0       0       0       0       0


** GEOMETRY OPTIMIZATION IN DELOCALIZED INTERNAL COORDINATES **
   Searching for a Minimum

   Optimization Cycle:   1

                       Coordinates (Angstroms)
     ATOM                X               Y               Z
      1  O         0.0000000000    0.0000000000    0.0000000000
      2  C         0.0000000000    0.0000000000    1.1700000000
      3  Cl        2.3350000000    0.0000000000    1.1700000000
      4  H         1.4142135624    0.0000000000    2.5842135624
   Point Group: c1    Number of degrees of freedom:     6


   Energy is   -574.020200873


 Attempting to Generate Delocalized Internal Coordinates

  5 Hessian modes will be used to form the next step
  Hessian Eigenvalues:
     0.043066    0.107199    0.160000    0.160000    1.214668

 Minimum Search - Taking Simple RFO Step
 Searching for Lamda that Minimizes Along All modes
 Value Taken    Lamda =  -0.15998439
 Calculated Step too Large.  Step scaled by  0.411899
 Step Taken.  Stepsize is  0.300000

                             Maximum     Tolerance    Cnvgd?
         Gradient           0.203683      0.000300      NO
         Displacement       0.272847      0.001200      NO
         Energy change     *********      0.000001      NO


 New Cartesian Coordinates Obtained by Inverse Iteration

 Displacement from previous Coordinates is:  0.765475
 ----------------------------------------------------------------
             Standard Nuclear Orientation (Angstroms)
    I     Atom           X                Y                Z
 ----------------------------------------------------------------
    1      O      -0.2172017387     0.0000000000    -0.0378188353
    2      C      -0.0762501128     0.0000000000     1.1152869657
    3      Cl      2.5988554585     0.0000000000     1.3425439485
    4      H       1.4438099554     0.0000000000     2.5042014835
 ----------------------------------------------------------------
 Nuclear Repulsion Energy =    73.3453374966 hartrees
 There are       16 alpha and       16 beta electrons
 Applying Cartesian multipole field
    Component          Value
    ---------          -----
     (2,0,0)        1.00000E-11
     (0,2,0)        2.00000E-10
     (0,0,2)       -3.00000E-11
 Nucleus-field energy     =    -0.0000000006 hartrees
 Requested basis set is 6-31G(d,p)
 There are 16 shells and 54 basis functions
 A cutoff of  1.0D-11 yielded    129 shell pairs
 There are      1552 function pairs
 Smallest overlap matrix eigenvalue = 6.99E-03
 Guess MOs from SCF MO coefficient file

 -----------------------------------------------------------------------
  General SCF calculation program by
  Eric Jon Sundstrom, Paul Horn, Yuezhi Mao, Dmitri Zuev, Alec White,
  David Stuck, Shaama M.S., Shane Yost, Joonho Lee, David Small,
  Daniel Levine, Susi Lehtola, Hugh Burton, Evgeny Epifanovsky
 -----------------------------------------------------------------------
 Exchange:     0.2000 Hartree-Fock + 0.0800 Slater + 0.7200 B88
 Correlation:  0.1900 VWN1RPA + 0.8100 LYP
 Using SG-1 standard quadrature grid
 using 8 threads for integral computing
 -------------------------------------------------------
 OpenMP Integral computing Module                
 Release: version 1.0, May 2013, Q-Chem Inc. Pittsburgh 
 -------------------------------------------------------
 -------------------------------------------------------
 OpenMP BLAS3 based DFT computing Module                
 Release: version 1.0, May 2013, Q-Chem Inc. Pittsburgh 
 -------------------------------------------------------
 A restricted SCF calculation will be
 performed using DIIS
 SCF converges when DIIS error is below 1.0e-08
 ---------------------------------------
  Cycle       Energy         DIIS error
 ---------------------------------------
    1    -574.0365799938      5.23e-03  
    2    -574.0594125985      1.09e-03  
    3    -574.0592156474      1.71e-03  
    4    -574.0600161124      4.96e-04  
    5    -574.0600839140      1.32e-04  
    6    -574.0600909123      3.62e-05  
    7    -574.0600915744      6.45e-06  
    8    -574.0600915939      8.67e-07  
    9    -574.0600915943      1.99e-07  
   10    -574.0600915943      2.57e-08  
   11    -574.0600915943      7.84e-09  Convergence criterion met
 ---------------------------------------
 SCF time:   CPU 3.72s  wall 0.00s 
 SCF   energy in the final basis set =     -574.0600915943
 Total energy in the final basis set =     -574.0600915943
 
 --------------------------------------------------------------
 
                    Orbital Energies (a.u.)
 --------------------------------------------------------------
 
 Alpha MOs
 -- Occupied --
******* -19.261 -10.321  -9.472  -7.236  -7.226  -7.226  -1.149
 -0.812  -0.576  -0.473  -0.464  -0.448  -0.373  -0.324  -0.314
 -- Virtual --
 -0.089  -0.042  -0.027   0.258   0.391   0.423   0.451   0.515
  0.527   0.528   0.625   0.711   0.729   0.801   0.842   0.862
  0.870   0.913   0.919   0.949   1.010   1.420   1.483   1.505
  1.514   1.538   1.921   1.923   1.971   2.143   2.303   2.341
  2.566   2.578   2.924   3.708   3.951   4.227
 --------------------------------------------------------------
 
          Ground-State Mulliken Net Atomic Charges

     Atom                 Charge (a.u.)
  ----------------------------------------
      1 O                    -0.195439
      2 C                     0.189740
      3 Cl                   -0.220553
      4 H                     0.226252
  ----------------------------------------
  Sum of atomic charges =     0.000000

 -----------------------------------------------------------------
                    Cartesian Multipole Moments
 -----------------------------------------------------------------
    Charge (ESU x 10^10)
                -0.0000
    Dipole Moment (Debye)
         X      -1.2591      Y      -0.0000      Z       1.1610
       Tot       1.7127
    Quadrupole Moments (Debye-Ang)
        XX     -28.5785     XY      -0.0000     YY     -24.1180
        XZ      -1.1545     YZ      -0.0000     ZZ     -20.2128
    Octopole Moments (Debye-Ang^2)
       XXX    -112.7540    XXY      -0.0000    XYY     -34.5888
       YYY      -0.0000    XXZ     -33.8885    XYZ      -0.0000
       YYZ     -25.6837    XZZ     -30.1206    YZZ      -0.0000
       ZZZ     -62.6815
    Hexadecapole Moments (Debye-Ang^3)
      XXXX    -585.7624   XXXY      -0.0000   XXYY    -100.2768
      XYYY      -0.0000   YYYY     -23.9122   XXXZ    -175.6072
      XXYZ      -0.0000   XYYZ     -49.6749   YYYZ      -0.0000
      XXZZ    -140.7281   XYZZ      -0.0000   YYZZ     -44.0435
      XZZZ    -125.8691   YZZZ      -0.0000   ZZZZ    -194.6993
 -----------------------------------------------------------------
 Calculating analytic gradient of the SCF energy
 Gradient of SCF Energy
            1           2           3           4
    1  -0.0026157   0.0233355   0.0378071  -0.0585269
    2  -0.0000000   0.0000000  -0.0000000   0.0000000
    3  -0.0519575   0.0540595  -0.0635650   0.0614630
 Max gradient component =       6.356E-02
 RMS gradient           =       3.963E-02
 Gradient time:  CPU 2.29 s  wall 0.29 s
 Geometry Optimization Parameters
   NAtoms,    NIC,     NZ,  NCons,   NDum,   NFix, NCnnct, MaxDiis
        4      14       4       0       0       0       0       0

 Cartesian Hessian Update
 Hessian Updated using BFGS Update


** GEOMETRY OPTIMIZATION IN DELOCALIZED INTERNAL COORDINATES **
   Searching for a Minimum

   Optimization Cycle:   2

                       Coordinates (Angstroms)
     ATOM                X               Y               Z
      1  O        -0.2172017387    0.0000000000   -0.0378188353
      2  C        -0.0762501128    0.0000000000    1.1152869657
      3  Cl        2.5988554585    0.0000000000    1.3425439485
      4  H         1.4438099554    0.0000000000    2.5042014835
   Point Group: c1    Number of degrees of freedom:     6


   Energy is   -574.060091594

 Hessian Updated using BFGS Update

  5 Hessian modes will be used to form the next step
  Hessian Eigenvalues:
     0.047243    0.090658    0.159522    0.579478    1.192147

 Minimum Search - Taking Simple RFO Step
 Searching for Lamda that Minimizes Along All modes
 Value Taken    Lamda =  -0.05247321
 Calculated Step too Large.  Step scaled by  0.518889
 Step Taken.  Stepsize is  0.300000

                             Maximum     Tolerance    Cnvgd?
         Gradient           0.086859      0.000300      NO
         Displacement       0.287418      0.001200      NO
         Energy change     -0.039891      0.000001      NO


 New Cartesian Coordinates Obtained by Inverse Iteration

 Displacement from previous Coordinates is:  0.255830
 ----------------------------------------------------------------
             Standard Nuclear Orientation (Angstroms)
    I     Atom           X                Y                Z
 ----------------------------------------------------------------
    1      O      -0.2625713075     0.0000000000    -0.0360084698
    2      C      -0.0849166409     0.0000000000     1.0962759556
    3      Cl      2.5980774834     0.0000000000     1.4307567633
    4      H       1.4986240273     0.0000000000     2.4331893133
 ----------------------------------------------------------------
 Nuclear Repulsion Energy =    73.4861246671 hartrees
 There are       16 alpha and       16 beta electrons
 Applying Cartesian multipole field
    Component          Value
    ---------          -----
     (2,0,0)        1.00000E-11
     (0,2,0)        2.00000E-10
     (0,0,2)       -3.00000E-11
 Nucleus-field energy     =    -0.0000000009 hartrees
 Requested basis set is 6-31G(d,p)
 There are 16 shells and 54 basis functions
 A cutoff of  1.0D-11 yielded    128 shell pairs
 There are      1536 function pairs
 Smallest overlap matrix eigenvalue = 6.71E-03
 Guess MOs from SCF MO coefficient file

 -----------------------------------------------------------------------
  General SCF calculation program by
  Eric Jon Sundstrom, Paul Horn, Yuezhi Mao, Dmitri Zuev, Alec White,
  David Stuck, Shaama M.S., Shane Yost, Joonho Lee, David Small,
  Daniel Levine, Susi Lehtola, Hugh Burton, Evgeny Epifanovsky
 -----------------------------------------------------------------------
 Exchange:     0.2000 Hartree-Fock + 0.0800 Slater + 0.7200 B88
 Correlation:  0.1900 VWN1RPA + 0.8100 LYP
 Using SG-1 standard quadrature grid
 using 8 threads for integral computing
 -------------------------------------------------------
 OpenMP Integral computing Module                
 Release: version 1.0, May 2013, Q-Chem Inc. Pittsburgh 
 -------------------------------------------------------
 -------------------------------------------------------
 OpenMP BLAS3 based DFT computing Module                
 Release: version 1.0, May 2013, Q-Chem Inc. Pittsburgh 
 -------------------------------------------------------
 A restricted SCF calculation will be
 performed using DIIS
 SCF converges when DIIS error is below 1.0e-08
 ---------------------------------------
  Cycle       Energy         DIIS error
 ---------------------------------------
    1    -574.0810539105      2.44e-03  
    2    -574.0847178505      7.62e-04  
    3    -574.0848104384      7.06e-04  
    4    -574.0849038466      4.14e-04  
    5    -574.0849535370      2.80e-05  
    6    -574.0849538116      6.69e-06  
    7    -574.0849538278      2.36e-06  
    8    -574.0849538304      6.53e-07  
    9    -574.0849538306      6.95e-08  
   10    -574.0849538306      6.81e-09  Convergence criterion met
 ---------------------------------------
 SCF time:   CPU 3.37s  wall 0.00s 
 SCF   energy in the final basis set =     -574.0849538306
 Total energy in the final basis set =     -574.0849538306
 
 --------------------------------------------------------------
 
                    Orbital Energies (a.u.)
 --------------------------------------------------------------
 
 Alpha MOs
 -- Occupied --
******* -19.261 -10.314  -9.473  -7.237  -7.227  -7.227  -1.157
 -0.825  -0.575  -0.478  -0.469  -0.458  -0.380  -0.328  -0.317
 -- Virtual --
 -0.049  -0.035  -0.017   0.260   0.392   0.422   0.439   0.499
  0.527   0.527   0.624   0.711   0.738   0.801   0.827   0.857
  0.867   0.910   0.921   1.003   1.036   1.429   1.478   1.513
  1.526   1.535   1.931   1.932   1.997   2.145   2.368   2.459
  2.583   2.597   2.946   3.729   3.955   4.251
 --------------------------------------------------------------
 
          Ground-State Mulliken Net Atomic Charges

     Atom                 Charge (a.u.)
  ----------------------------------------
      1 O                    -0.185947
      2 C                     0.174430
      3 Cl                   -0.204560
      4 H                     0.216077
  ----------------------------------------
  Sum of atomic charges =     0.000000

 -----------------------------------------------------------------
                    Cartesian Multipole Moments
 -----------------------------------------------------------------
    Charge (ESU x 10^10)
                 0.0000
    Dipole Moment (Debye)
         X      -1.1489      Y       0.0000      Z       0.9801
       Tot       1.5102
    Quadrupole Moments (Debye-Ang)
        XX     -28.0314     XY       0.0000     YY     -23.9423
        XZ      -1.2182     YZ       0.0000     ZZ     -20.8286
    Octopole Moments (Debye-Ang^2)
       XXX    -110.0328    XXY       0.0000    XYY     -34.0829
       YYY       0.0000    XXZ     -34.3098    XYZ       0.0000
       YYZ     -26.3925    XZZ     -30.5272    YZZ       0.0000
       ZZZ     -67.2829
    Hexadecapole Moments (Debye-Ang^3)
      XXXX    -578.6523   XXXY       0.0000   XXYY     -99.7872
      XYYY       0.0000   YYYY     -23.6218   XXXZ    -181.7161
      XXYZ       0.0000   XYYZ     -52.1118   YYYZ       0.0000
      XXZZ    -143.6904   XYZZ       0.0000   YYZZ     -46.0586
      XZZZ    -136.3320   YZZZ       0.0000   ZZZZ    -214.5675
 -----------------------------------------------------------------
 Calculating analytic gradient of the SCF energy
 Gradient of SCF Energy
            1           2           3           4
    1  -0.0006951   0.0208781   0.0316023  -0.0517852
    2   0.0000000  -0.0000000   0.0000000   0.0000000
    3  -0.0191046   0.0226091  -0.0505634   0.0470589
 Max gradient component =       5.179E-02
 RMS gradient           =       2.853E-02
 Gradient time:  CPU 2.29 s  wall 0.29 s
 Geometry Optimization Parameters
   NAtoms,    NIC,     NZ,  NCons,   NDum,   NFix, NCnnct, MaxDiis
        4      14       4       0       0       0       0       0

 Cartesian Hessian Update
 Hessian Updated using BFGS Update


** GEOMETRY OPTIMIZATION IN DELOCALIZED INTERNAL COORDINATES **
   Searching for a Minimum

   Optimization Cycle:   3

                       Coordinates (Angstroms)
     ATOM                X               Y               Z
      1  O        -0.2625713075    0.0000000000   -0.0360084698
      2  C        -0.0849166409    0.0000000000    1.0962759556
      3  Cl        2.5980774834    0.0000000000    1.4307567633
      4  H         1.4986240273    0.0000000000    2.4331893133
   Point Group: c1    Number of degrees of freedom:     6


   Energy is   -574.084953831

 Hessian Updated using BFGS Update

  5 Hessian modes will be used to form the next step
  Hessian Eigenvalues:
     0.041190    0.064194    0.158908    0.543326    1.306425

 Minimum Search - Taking Simple RFO Step
 Searching for Lamda that Minimizes Along All modes
 Value Taken    Lamda =  -0.04844896
 Calculated Step too Large.  Step scaled by  0.438235
 Step Taken.  Stepsize is  0.300000

                             Maximum     Tolerance    Cnvgd?
         Gradient           0.064693      0.000300      NO
         Displacement       0.281290      0.001200      NO
         Energy change     -0.024862      0.000001      NO


 New Cartesian Coordinates Obtained by Inverse Iteration

 Displacement from previous Coordinates is:  0.255537
 ----------------------------------------------------------------
             Standard Nuclear Orientation (Angstroms)
    I     Atom           X                Y                Z
 ----------------------------------------------------------------
    1      O      -0.3088350121     0.0000000000    -0.0454209222
    2      C      -0.1064029112     0.0000000000     1.0766009506
    3      Cl      2.5983122099     0.0000000000     1.5168074565
    4      H       1.5661392758     0.0000000000     2.3762260775
 ----------------------------------------------------------------
 Nuclear Repulsion Energy =    73.3611341744 hartrees
 There are       16 alpha and       16 beta electrons
 Applying Cartesian multipole field
    Component          Value
    ---------          -----
     (2,0,0)        1.00000E-11
     (0,2,0)        2.00000E-10
     (0,0,2)       -3.00000E-11
 Nucleus-field energy     =    -0.0000000013 hartrees
 Requested basis set is 6-31G(d,p)
 There are 16 shells and 54 basis functions
 A cutoff of  1.0D-11 yielded    127 shell pairs
 There are      1530 function pairs
 Smallest overlap matrix eigenvalue = 6.66E-03
 Guess MOs from SCF MO coefficient file

 -----------------------------------------------------------------------
  General SCF calculation program by
  Eric Jon Sundstrom, Paul Horn, Yuezhi Mao, Dmitri Zuev, Alec White,
  David Stuck, Shaama M.S., Shane Yost, Joonho Lee, David Small,
  Daniel Levine, Susi Lehtola, Hugh Burton, Evgeny Epifanovsky
 -----------------------------------------------------------------------
 Exchange:     0.2000 Hartree-Fock + 0.0800 Slater + 0.7200 B88
 Correlation:  0.1900 VWN1RPA + 0.8100 LYP
 Using SG-1 standard quadrature grid
 using 8 threads for integral computing
 -------------------------------------------------------
 OpenMP Integral computing Module                
 Release: version 1.0, May 2013, Q-Chem Inc. Pittsburgh 
 -------------------------------------------------------
 -------------------------------------------------------
 OpenMP BLAS3 based DFT computing Module                
 Release: version 1.0, May 2013, Q-Chem Inc. Pittsburgh 
 -------------------------------------------------------
 A restricted SCF calculation will be
 performed using DIIS
 SCF converges when DIIS error is below 1.0e-08
 ---------------------------------------
  Cycle       Energy         DIIS error
 ---------------------------------------
    1    -574.0976026864      2.46e-03  
    2    -574.1010751657      7.73e-04  
    3    -574.1012495929      4.98e-04  
    4    -574.1012980975      3.45e-04  
    5    -574.1013307376      3.47e-05  
    6    -574.1013311036      5.65e-06  
    7    -574.1013311154      1.68e-06  
    8    -574.1013311167      4.30e-07  
    9    -574.1013311167      5.31e-08  
   10    -574.1013311167      7.56e-09  Convergence criterion met
 ---------------------------------------
 SCF time:   CPU 3.40s  wall 0.00s 
 SCF   energy in the final basis set =     -574.1013311167
 Total energy in the final basis set =     -574.1013311167
 
 --------------------------------------------------------------
 
                    Orbital Energies (a.u.)
 --------------------------------------------------------------
 
 Alpha MOs
 -- Occupied --
******* -19.261 -10.311  -9.473  -7.237  -7.227  -7.227  -1.160
 -0.842  -0.575  -0.483  -0.471  -0.466  -0.385  -0.332  -0.321
 -- Virtual --
 -0.032  -0.027   0.009   0.262   0.390   0.418   0.421   0.482
  0.527   0.529   0.623   0.719   0.747   0.804   0.808   0.850
  0.863   0.897   0.921   1.016   1.133   1.432   1.476   1.513
  1.531   1.536   1.936   1.938   2.039   2.149   2.382   2.591
  2.597   2.673   2.956   3.735   3.954   4.283
 --------------------------------------------------------------
 
          Ground-State Mulliken Net Atomic Charges

     Atom                 Charge (a.u.)
  ----------------------------------------
      1 O                    -0.181597
      2 C                     0.166714
      3 Cl                   -0.186428
      4 H                     0.201310
  ----------------------------------------
  Sum of atomic charges =     0.000000

 -----------------------------------------------------------------
                    Cartesian Multipole Moments
 -----------------------------------------------------------------
    Charge (ESU x 10^10)
                 0.0000
    Dipole Moment (Debye)
         X      -1.0452      Y      -0.0000      Z       0.8456
       Tot       1.3444
    Quadrupole Moments (Debye-Ang)
        XX     -27.5105     XY      -0.0000     YY     -23.7728
        XZ      -1.2375     YZ      -0.0000     ZZ     -21.2991
    Octopole Moments (Debye-Ang^2)
       XXX    -107.2063    XXY      -0.0000    XYY     -33.4952
       YYY      -0.0000    XXZ     -34.5295    XYZ      -0.0000
       YYZ     -26.9974    XZZ     -30.6342    YZZ      -0.0000
       ZZZ     -71.0841
    Hexadecapole Moments (Debye-Ang^3)
      XXXX    -572.6885   XXXY      -0.0000   XXYY     -99.3724
      XYYY      -0.0000   YYYY     -23.3382   XXXZ    -187.1578
      XXYZ      -0.0000   XYYZ     -54.3962   YYYZ      -0.0000
      XXZZ    -146.4675   XYZZ      -0.0000   YYZZ     -48.1852
      XZZZ    -145.6993   YZZZ      -0.0000   ZZZZ    -233.3768
 -----------------------------------------------------------------
 Calculating analytic gradient of the SCF energy
 Gradient of SCF Energy
            1           2           3           4
    1   0.0004561   0.0175492   0.0065977  -0.0246030
    2   0.0000000  -0.0000000   0.0000000  -0.0000000
    3  -0.0056803   0.0098921  -0.0226694   0.0184576
 Max gradient component =       2.460E-02
 RMS gradient           =       1.272E-02
 Gradient time:  CPU 2.29 s  wall 0.29 s
 Geometry Optimization Parameters
   NAtoms,    NIC,     NZ,  NCons,   NDum,   NFix, NCnnct, MaxDiis
        4      14       4       0       0       0       0       0

 Cartesian Hessian Update
 Hessian Updated using BFGS Update


** GEOMETRY OPTIMIZATION IN DELOCALIZED INTERNAL COORDINATES **
   Searching for a Minimum

   Optimization Cycle:   4

                       Coordinates (Angstroms)
     ATOM                X               Y               Z
      1  O        -0.3088350121    0.0000000000   -0.0454209222
      2  C        -0.1064029112    0.0000000000    1.0766009506
      3  Cl        2.5983122099    0.0000000000    1.5168074565
      4  H         1.5661392758    0.0000000000    2.3762260775
   Point Group: c1    Number of degrees of freedom:     6


   Energy is   -574.101331117

 Hessian Updated using BFGS Update

  5 Hessian modes will be used to form the next step
  Hessian Eigenvalues:
     0.046226    0.134409    0.167286    0.509753    1.313219

 Minimum Search - Taking Simple RFO Step
 Searching for Lamda that Minimizes Along All modes
 Value Taken    Lamda =  -0.01104149
 Calculated Step too Large.  Step scaled by  0.910877
 Step Taken.  Stepsize is  0.300000

                             Maximum     Tolerance    Cnvgd?
         Gradient           0.033563      0.000300      NO
         Displacement       0.210925      0.001200      NO
         Energy change     -0.016377      0.000001      NO


 New Cartesian Coordinates Obtained by Inverse Iteration

 Displacement from previous Coordinates is:  0.293608
 ----------------------------------------------------------------
             Standard Nuclear Orientation (Angstroms)
    I     Atom           X                Y                Z
 ----------------------------------------------------------------
    1      O      -0.3634372652     0.0000000000    -0.0709163093
    2      C      -0.1726180475     0.0000000000     1.0475379073
    3      Cl      2.6418654084     0.0000000000     1.5985138868
    4      H       1.6434034666     0.0000000000     2.3490780775
 ----------------------------------------------------------------
 Nuclear Repulsion Energy =    72.1112195688 hartrees
 There are       16 alpha and       16 beta electrons
 Applying Cartesian multipole field
    Component          Value
    ---------          -----
     (2,0,0)        1.00000E-11
     (0,2,0)        2.00000E-10
     (0,0,2)       -3.00000E-11
 Nucleus-field energy     =    -0.0000000016 hartrees
 Requested basis set is 6-31G(d,p)
 There are 16 shells and 54 basis functions
 A cutoff of  1.0D-11 yielded    127 shell pairs
 There are      1530 function pairs
 Smallest overlap matrix eigenvalue = 6.79E-03
 Guess MOs from SCF MO coefficient file

 -----------------------------------------------------------------------
  General SCF calculation program by
  Eric Jon Sundstrom, Paul Horn, Yuezhi Mao, Dmitri Zuev, Alec White,
  David Stuck, Shaama M.S., Shane Yost, Joonho Lee, David Small,
  Daniel Levine, Susi Lehtola, Hugh Burton, Evgeny Epifanovsky
 -----------------------------------------------------------------------
 Exchange:     0.2000 Hartree-Fock + 0.0800 Slater + 0.7200 B88
 Correlation:  0.1900 VWN1RPA + 0.8100 LYP
 Using SG-1 standard quadrature grid
 using 8 threads for integral computing
 -------------------------------------------------------
 OpenMP Integral computing Module                
 Release: version 1.0, May 2013, Q-Chem Inc. Pittsburgh 
 -------------------------------------------------------
 -------------------------------------------------------
 OpenMP BLAS3 based DFT computing Module                
 Release: version 1.0, May 2013, Q-Chem Inc. Pittsburgh 
 -------------------------------------------------------
 A restricted SCF calculation will be
 performed using DIIS
 SCF converges when DIIS error is below 1.0e-08
 ---------------------------------------
  Cycle       Energy         DIIS error
 ---------------------------------------
    1    -574.1034769213      1.95e-03  
    2    -574.1057038450      6.52e-04  
    3    -574.1057626254      6.16e-04  
    4    -574.1058406330      3.22e-04  
    5    -574.1058703386      1.89e-05  
    6    -574.1058704604      3.60e-06  
    7    -574.1058704652      8.35e-07  
    8    -574.1058704655      2.45e-07  
    9    -574.1058704655      3.41e-08  
   10    -574.1058704655      3.67e-09  Convergence criterion met
 ---------------------------------------
 SCF time:   CPU 3.41s  wall 1.00s 
 SCF   energy in the final basis set =     -574.1058704655
 Total energy in the final basis set =     -574.1058704655
 
 --------------------------------------------------------------
 
                    Orbital Energies (a.u.)
 --------------------------------------------------------------
 
 Alpha MOs
 -- Occupied --
******* -19.263 -10.310  -9.472  -7.236  -7.226  -7.226  -1.165
 -0.855  -0.575  -0.487  -0.474  -0.471  -0.387  -0.334  -0.326
 -- Virtual --
 -0.030  -0.026   0.039   0.261   0.377   0.408   0.422   0.463
  0.525   0.531   0.633   0.733   0.756   0.797   0.804   0.844
  0.862   0.881   0.918   0.997   1.221   1.429   1.472   1.499
  1.535   1.542   1.938   1.941   2.080   2.147   2.394   2.596
  2.606   2.843   2.961   3.727   3.946   4.296
 --------------------------------------------------------------
 
          Ground-State Mulliken Net Atomic Charges

     Atom                 Charge (a.u.)
  ----------------------------------------
      1 O                    -0.173720
      2 C                     0.165760
      3 Cl                   -0.178560
      4 H                     0.186520
  ----------------------------------------
  Sum of atomic charges =     0.000000

 -----------------------------------------------------------------
                    Cartesian Multipole Moments
 -----------------------------------------------------------------
    Charge (ESU x 10^10)
                 0.0000
    Dipole Moment (Debye)
         X      -1.0754      Y       0.0000      Z       0.7173
       Tot       1.2927
    Quadrupole Moments (Debye-Ang)
        XX     -27.3608     XY       0.0000     YY     -23.6552
        XZ      -1.3745     YZ       0.0000     ZZ     -21.7154
    Octopole Moments (Debye-Ang^2)
       XXX    -106.5737    XXY       0.0000    XYY     -33.3446
       YYY       0.0000    XXZ     -35.2495    XYZ       0.0000
       YYZ     -27.5573    XZZ     -31.1523    YZZ       0.0000
       ZZZ     -74.1755
    Hexadecapole Moments (Debye-Ang^3)
      XXXX    -588.7224   XXXY       0.0000   XXYY    -102.3647
      XYYY       0.0000   YYYY     -23.1393   XXXZ    -196.8679
      XXYZ       0.0000   XYYZ     -57.5129   YYYZ       0.0000
      XXZZ    -153.7397   XYZZ       0.0000   YYZZ     -50.6161
      XZZZ    -157.1065   YZZZ       0.0000   ZZZZ    -251.6523
 -----------------------------------------------------------------
 Calculating analytic gradient of the SCF energy
 Gradient of SCF Energy
            1           2           3           4
    1   0.0024075   0.0091183  -0.0312201   0.0196943
    2   0.0000000  -0.0000000  -0.0000000   0.0000000
    3   0.0061535  -0.0029616   0.0125722  -0.0157641
 Max gradient component =       3.122E-02
 RMS gradient           =       1.260E-02
 Gradient time:  CPU 2.28 s  wall 0.29 s
 Geometry Optimization Parameters
   NAtoms,    NIC,     NZ,  NCons,   NDum,   NFix, NCnnct, MaxDiis
        4      14       4       0       0       0       0       0

 Cartesian Hessian Update
 Hessian Updated using BFGS Update


** GEOMETRY OPTIMIZATION IN DELOCALIZED INTERNAL COORDINATES **
   Searching for a Minimum

   Optimization Cycle:   5

                       Coordinates (Angstroms)
     ATOM                X               Y               Z
      1  O        -0.3634372652    0.0000000000   -0.0709163093
      2  C        -0.1726180475    0.0000000000    1.0475379073
      3  Cl        2.6418654084    0.0000000000    1.5985138868
      4  H         1.6434034666    0.0000000000    2.3490780775
   Point Group: c1    Number of degrees of freedom:     6


   Energy is   -574.105870465

 Hessian Updated using BFGS Update

  5 Hessian modes will be used to form the next step
  Hessian Eigenvalues:
     0.039941    0.140667    0.280398    0.479092    1.328191

 Minimum Search - Taking Simple RFO Step
 Searching for Lamda that Minimizes Along All modes
 Value Taken    Lamda =  -0.00444334
 Step Taken.  Stepsize is  0.176900

                             Maximum     Tolerance    Cnvgd?
         Gradient           0.029127      0.000300      NO
         Displacement       0.121285      0.001200      NO
         Energy change     -0.004539      0.000001      NO


 New Cartesian Coordinates Obtained by Inverse Iteration

 Displacement from previous Coordinates is:  0.196735
 ----------------------------------------------------------------
             Standard Nuclear Orientation (Angstroms)
    I     Atom           X                Y                Z
 ----------------------------------------------------------------
    1      O      -0.3910972854     0.0000000000    -0.0904918772
    2      C      -0.2328080433     0.0000000000     1.0303564523
    3      Cl      2.7101162349     0.0000000000     1.6220989995
    4      H       1.6630026562     0.0000000000     2.3622499878
 ----------------------------------------------------------------
 Nuclear Repulsion Energy =    70.4441605663 hartrees
 There are       16 alpha and       16 beta electrons
 Applying Cartesian multipole field
    Component          Value
    ---------          -----
     (2,0,0)        1.00000E-11
     (0,2,0)        2.00000E-10
     (0,0,2)       -3.00000E-11
 Nucleus-field energy     =    -0.0000000015 hartrees
 Requested basis set is 6-31G(d,p)
 There are 16 shells and 54 basis functions
 A cutoff of  1.0D-11 yielded    126 shell pairs
 There are      1506 function pairs
 Smallest overlap matrix eigenvalue = 6.96E-03
 Guess MOs from SCF MO coefficient file

 -----------------------------------------------------------------------
  General SCF calculation program by
  Eric Jon Sundstrom, Paul Horn, Yuezhi Mao, Dmitri Zuev, Alec White,
  David Stuck, Shaama M.S., Shane Yost, Joonho Lee, David Small,
  Daniel Levine, Susi Lehtola, Hugh Burton, Evgeny Epifanovsky
 -----------------------------------------------------------------------
 Exchange:     0.2000 Hartree-Fock + 0.0800 Slater + 0.7200 B88
 Correlation:  0.1900 VWN1RPA + 0.8100 LYP
 Using SG-1 standard quadrature grid
 using 8 threads for integral computing
 -------------------------------------------------------
 OpenMP Integral computing Module                
 Release: version 1.0, May 2013, Q-Chem Inc. Pittsburgh 
 -------------------------------------------------------
 -------------------------------------------------------
 OpenMP BLAS3 based DFT computing Module                
 Release: version 1.0, May 2013, Q-Chem Inc. Pittsburgh 
 -------------------------------------------------------
 A restricted SCF calculation will be
 performed using DIIS
 SCF converges when DIIS error is below 1.0e-08
 ---------------------------------------
  Cycle       Energy         DIIS error
 ---------------------------------------
    1    -574.1079326578      1.28e-03  
    2    -574.1089633526      2.88e-04  
    3    -574.1089586524      3.67e-04  
    4    -574.1089916088      1.58e-04  
    5    -574.1089986045      1.20e-05  
    6    -574.1089986607      3.19e-06  
    7    -574.1089986645      8.49e-07  
    8    -574.1089986648      1.16e-07  
    9    -574.1089986649      2.04e-08  
   10    -574.1089986649      3.72e-09  Convergence criterion met
 ---------------------------------------
 SCF time:   CPU 3.41s  wall 1.00s 
 SCF   energy in the final basis set =     -574.1089986649
 Total energy in the final basis set =     -574.1089986649
 
 --------------------------------------------------------------
 
                    Orbital Energies (a.u.)
 --------------------------------------------------------------
 
 Alpha MOs
 -- Occupied --
******* -19.265 -10.311  -9.472  -7.236  -7.226  -7.226  -1.168
 -0.848  -0.577  -0.483  -0.476  -0.471  -0.386  -0.332  -0.327
 -- Virtual --
 -0.030  -0.030   0.031   0.257   0.377   0.410   0.423   0.449
  0.522   0.530   0.645   0.733   0.759   0.800   0.801   0.842
  0.864   0.872   0.915   0.976   1.189   1.422   1.470   1.487
  1.536   1.543   1.938   1.941   2.065   2.119   2.399   2.597
  2.606   2.779   2.962   3.716   3.937   4.292
 --------------------------------------------------------------
 
          Ground-State Mulliken Net Atomic Charges

     Atom                 Charge (a.u.)
  ----------------------------------------
      1 O                    -0.168014
      2 C                     0.168028
      3 Cl                   -0.187599
      4 H                     0.187584
  ----------------------------------------
  Sum of atomic charges =     0.000000

 -----------------------------------------------------------------
                    Cartesian Multipole Moments
 -----------------------------------------------------------------
    Charge (ESU x 10^10)
                 0.0000
    Dipole Moment (Debye)
         X      -1.1990      Y       0.0000      Z       0.6686
       Tot       1.3728
    Quadrupole Moments (Debye-Ang)
        XX     -27.6928     XY       0.0000     YY     -23.6951
        XZ      -1.5524     YZ       0.0000     ZZ     -21.9033
    Octopole Moments (Debye-Ang^2)
       XXX    -109.0698    XXY       0.0000    XYY     -33.9400
       YYY       0.0000    XXZ     -36.2053    XYZ       0.0000
       YYZ     -27.8017    XZZ     -32.1018    YZZ       0.0000
       ZZZ     -75.1105
    Hexadecapole Moments (Debye-Ang^3)
      XXXX    -620.5452   XXXY       0.0000   XXYY    -107.6896
      XYYY       0.0000   YYYY     -23.2005   XXXZ    -205.9382
      XXYZ       0.0000   XYYZ     -59.8008   YYYZ       0.0000
      XXZZ    -162.0621   XYZZ       0.0000   YYZZ     -51.7558
      XZZZ    -164.7108   YZZZ       0.0000   ZZZZ    -258.4323
 -----------------------------------------------------------------
 Calculating analytic gradient of the SCF energy
 Gradient of SCF Energy
            1           2           3           4
    1   0.0031691   0.0039688  -0.0092414   0.0021035
    2  -0.0000000   0.0000000  -0.0000000   0.0000000
    3   0.0117045  -0.0096261  -0.0003479  -0.0017304
 Max gradient component =       1.170E-02
 RMS gradient           =       5.388E-03
 Gradient time:  CPU 2.44 s  wall 0.31 s
 Geometry Optimization Parameters
   NAtoms,    NIC,     NZ,  NCons,   NDum,   NFix, NCnnct, MaxDiis
        4      14       4       0       0       0       0       0

 Cartesian Hessian Update
 Hessian Updated using BFGS Update


** GEOMETRY OPTIMIZATION IN DELOCALIZED INTERNAL COORDINATES **
   Searching for a Minimum

   Optimization Cycle:   6

                       Coordinates (Angstroms)
     ATOM                X               Y               Z
      1  O        -0.3910972854    0.0000000000   -0.0904918772
      2  C        -0.2328080433    0.0000000000    1.0303564523
      3  Cl        2.7101162349    0.0000000000    1.6220989995
      4  H         1.6630026562    0.0000000000    2.3622499878
   Point Group: c1    Number of degrees of freedom:     6


   Energy is   -574.108998665

 Hessian Updated using BFGS Update

  5 Hessian modes will be used to form the next step
  Hessian Eigenvalues:
     0.027692    0.133084    0.311182    0.391293    1.317429

 Minimum Search - Taking Simple RFO Step
 Searching for Lamda that Minimizes Along All modes
 Value Taken    Lamda =  -0.00258909
 Step Taken.  Stepsize is  0.241832

                             Maximum     Tolerance    Cnvgd?
         Gradient           0.015638      0.000300      NO
         Displacement       0.163671      0.001200      NO
         Energy change     -0.003128      0.000001      NO


 New Cartesian Coordinates Obtained by Inverse Iteration

 Displacement from previous Coordinates is:  0.290772
 ----------------------------------------------------------------
             Standard Nuclear Orientation (Angstroms)
    I     Atom           X                Y                Z
 ----------------------------------------------------------------
    1      O      -0.4455020835     0.0000000000    -0.1232009617
    2      C      -0.3117751680     0.0000000000     1.0039391867
    3      Cl      2.7980295734     0.0000000000     1.6758414701
    4      H       1.7084612404     0.0000000000     2.3676338672
 ----------------------------------------------------------------
 Nuclear Repulsion Energy =    68.3055040429 hartrees
 There are       16 alpha and       16 beta electrons
 Applying Cartesian multipole field
    Component          Value
    ---------          -----
     (2,0,0)        1.00000E-11
     (0,2,0)        2.00000E-10
     (0,0,2)       -3.00000E-11
 Nucleus-field energy     =    -0.0000000014 hartrees
 Requested basis set is 6-31G(d,p)
 There are 16 shells and 54 basis functions
 A cutoff of  1.0D-11 yielded    125 shell pairs
 There are      1500 function pairs
 Smallest overlap matrix eigenvalue = 7.26E-03
 Guess MOs from SCF MO coefficient file

 -----------------------------------------------------------------------
  General SCF calculation program by
  Eric Jon Sundstrom, Paul Horn, Yuezhi Mao, Dmitri Zuev, Alec White,
  David Stuck, Shaama M.S., Shane Yost, Joonho Lee, David Small,
  Daniel Levine, Susi Lehtola, Hugh Burton, Evgeny Epifanovsky
 -----------------------------------------------------------------------
 Exchange:     0.2000 Hartree-Fock + 0.0800 Slater + 0.7200 B88
 Correlation:  0.1900 VWN1RPA + 0.8100 LYP
 Using SG-1 standard quadrature grid
 using 8 threads for integral computing
 -------------------------------------------------------
 OpenMP Integral computing Module                
 Release: version 1.0, May 2013, Q-Chem Inc. Pittsburgh 
 -------------------------------------------------------
 -------------------------------------------------------
 OpenMP BLAS3 based DFT computing Module                
 Release: version 1.0, May 2013, Q-Chem Inc. Pittsburgh 
 -------------------------------------------------------
 A restricted SCF calculation will be
 performed using DIIS
 SCF converges when DIIS error is below 1.0e-08
 ---------------------------------------
  Cycle       Energy         DIIS error
 ---------------------------------------
    1    -574.1098213108      1.14e-03  
    2    -574.1107738367      1.78e-04  
    3    -574.1107834162      1.58e-04  
    4    -574.1107881754      1.13e-04  
    5    -574.1107915411      1.02e-05  
    6    -574.1107915773      1.93e-06  
    7    -574.1107915787      5.38e-07  
    8    -574.1107915788      7.87e-08  
    9    -574.1107915788      2.26e-08  
   10    -574.1107915788      1.81e-09  Convergence criterion met
 ---------------------------------------
 SCF time:   CPU 3.34s  wall 0.00s 
 SCF   energy in the final basis set =     -574.1107915788
 Total energy in the final basis set =     -574.1107915788
 
 --------------------------------------------------------------
 
                    Orbital Energies (a.u.)
 --------------------------------------------------------------
 
 Alpha MOs
 -- Occupied --
******* -19.267 -10.314  -9.472  -7.236  -7.227  -7.227  -1.168
 -0.846  -0.578  -0.481  -0.477  -0.471  -0.386  -0.331  -0.329
 -- Virtual --
 -0.035  -0.032   0.029   0.253   0.371   0.409   0.425   0.435
  0.518   0.530   0.651   0.738   0.754   0.795   0.802   0.831
  0.865   0.866   0.912   0.956   1.181   1.409   1.469   1.479
  1.532   1.539   1.935   1.937   2.061   2.096   2.392   2.593
  2.601   2.763   2.954   3.699   3.925   4.287
 --------------------------------------------------------------
 
          Ground-State Mulliken Net Atomic Charges

     Atom                 Charge (a.u.)
  ----------------------------------------
      1 O                    -0.167115
      2 C                     0.172255
      3 Cl                   -0.191050
      4 H                     0.185910
  ----------------------------------------
  Sum of atomic charges =     0.000000

 -----------------------------------------------------------------
                    Cartesian Multipole Moments
 -----------------------------------------------------------------
    Charge (ESU x 10^10)
                -0.0000
    Dipole Moment (Debye)
         X      -1.2962      Y       0.0000      Z       0.6077
       Tot       1.4316
    Quadrupole Moments (Debye-Ang)
        XX     -27.9945     XY       0.0000     YY     -23.7162
        XZ      -1.7591     YZ       0.0000     ZZ     -22.2092
    Octopole Moments (Debye-Ang^2)
       XXX    -111.5204    XXY       0.0000    XYY     -34.5145
       YYY      -0.0000    XXZ     -37.4279    XYZ       0.0000
       YYZ     -28.2598    XZZ     -33.2865    YZZ       0.0000
       ZZZ     -77.1345
    Hexadecapole Moments (Debye-Ang^3)
      XXXX    -661.9073   XXXY      -0.0000   XXYY    -114.7083
      XYYY      -0.0000   YYYY     -23.2270   XXXZ    -219.4788
      XXYZ       0.0000   XYYZ     -63.5410   YYYZ       0.0000
      XXZZ    -173.9542   XYZZ       0.0000   YYZZ     -53.9797
      XZZZ    -177.6431   YZZZ       0.0000   ZZZZ    -272.9968
 -----------------------------------------------------------------
 Calculating analytic gradient of the SCF energy
 Gradient of SCF Energy
            1           2           3           4
    1   0.0019363   0.0012485  -0.0016196  -0.0015653
    2  -0.0000000   0.0000000   0.0000000   0.0000000
    3   0.0036691  -0.0025941  -0.0024230   0.0013480
 Max gradient component =       3.669E-03
 RMS gradient           =       1.786E-03
 Gradient time:  CPU 2.31 s  wall 0.29 s
 Geometry Optimization Parameters
   NAtoms,    NIC,     NZ,  NCons,   NDum,   NFix, NCnnct, MaxDiis
        4      14       4       0       0       0       0       0

 Cartesian Hessian Update
 Hessian Updated using BFGS Update


** GEOMETRY OPTIMIZATION IN DELOCALIZED INTERNAL COORDINATES **
   Searching for a Minimum

   Optimization Cycle:   7

                       Coordinates (Angstroms)
     ATOM                X               Y               Z
      1  O        -0.4455020835    0.0000000000   -0.1232009617
      2  C        -0.3117751680    0.0000000000    1.0039391867
      3  Cl        2.7980295734    0.0000000000    1.6758414701
      4  H         1.7084612404    0.0000000000    2.3676338672
   Point Group: c1    Number of degrees of freedom:     6


   Energy is   -574.110791579

 Hessian Updated using BFGS Update

  5 Hessian modes will be used to form the next step
  Hessian Eigenvalues:
     0.019368    0.129751    0.271260    0.401497    1.301749

 Minimum Search - Taking Simple RFO Step
 Searching for Lamda that Minimizes Along All modes
 Value Taken    Lamda =  -0.00095921
 Step Taken.  Stepsize is  0.190861

                             Maximum     Tolerance    Cnvgd?
         Gradient           0.008478      0.000300      NO
         Displacement       0.122505      0.001200      NO
         Energy change     -0.001793      0.000001      NO


 New Cartesian Coordinates Obtained by Inverse Iteration

 Displacement from previous Coordinates is:  0.243069
 ----------------------------------------------------------------
             Standard Nuclear Orientation (Angstroms)
    I     Atom           X                Y                Z
 ----------------------------------------------------------------
    1      O      -0.4980004963     0.0000000000    -0.1495000036
    2      C      -0.3697973583     0.0000000000     0.9795302012
    3      Cl      2.8680991885     0.0000000000     1.7267197960
    4      H       1.7489122285     0.0000000000     2.3674635688
 ----------------------------------------------------------------
 Nuclear Repulsion Energy =    66.7563428435 hartrees
 There are       16 alpha and       16 beta electrons
 Applying Cartesian multipole field
    Component          Value
    ---------          -----
     (2,0,0)        1.00000E-11
     (0,2,0)        2.00000E-10
     (0,0,2)       -3.00000E-11
 Nucleus-field energy     =    -0.0000000015 hartrees
 Requested basis set is 6-31G(d,p)
 There are 16 shells and 54 basis functions
 A cutoff of  1.0D-11 yielded    125 shell pairs
 There are      1500 function pairs
 Smallest overlap matrix eigenvalue = 7.43E-03
 Guess MOs from SCF MO coefficient file

 -----------------------------------------------------------------------
  General SCF calculation program by
  Eric Jon Sundstrom, Paul Horn, Yuezhi Mao, Dmitri Zuev, Alec White,
  David Stuck, Shaama M.S., Shane Yost, Joonho Lee, David Small,
  Daniel Levine, Susi Lehtola, Hugh Burton, Evgeny Epifanovsky
 -----------------------------------------------------------------------
 Exchange:     0.2000 Hartree-Fock + 0.0800 Slater + 0.7200 B88
 Correlation:  0.1900 VWN1RPA + 0.8100 LYP
 Using SG-1 standard quadrature grid
 using 8 threads for integral computing
 -------------------------------------------------------
 OpenMP Integral computing Module                
 Release: version 1.0, May 2013, Q-Chem Inc. Pittsburgh 
 -------------------------------------------------------
 -------------------------------------------------------
 OpenMP BLAS3 based DFT computing Module                
 Release: version 1.0, May 2013, Q-Chem Inc. Pittsburgh 
 -------------------------------------------------------
 A restricted SCF calculation will be
 performed using DIIS
 SCF converges when DIIS error is below 1.0e-08
 ---------------------------------------
  Cycle       Energy         DIIS error
 ---------------------------------------
    1    -574.1110434884      7.34e-04  
    2    -574.1114669953      1.14e-04  
    3    -574.1114681533      1.50e-04  
    4    -574.1114738201      5.90e-05  
    5    -574.1114747602      5.58e-06  
    6    -574.1114747719      9.21e-07  
    7    -574.1114747722      2.45e-07  
    8    -574.1114747722      3.30e-08  
    9    -574.1114747722      6.49e-09  Convergence criterion met
 ---------------------------------------
 SCF time:   CPU 3.09s  wall 0.00s 
 SCF   energy in the final basis set =     -574.1114747722
 Total energy in the final basis set =     -574.1114747722
 
 --------------------------------------------------------------
 
                    Orbital Energies (a.u.)
 --------------------------------------------------------------
 
 Alpha MOs
 -- Occupied --
******* -19.268 -10.315  -9.473  -7.236  -7.227  -7.227  -1.168
 -0.846  -0.579  -0.481  -0.477  -0.471  -0.386  -0.331  -0.330
 -- Virtual --
 -0.037  -0.033   0.029   0.251   0.365   0.405   0.427   0.430
  0.514   0.530   0.645   0.743   0.754   0.793   0.802   0.822
  0.865   0.865   0.910   0.946   1.182   1.400   1.469   1.474
  1.531   1.536   1.934   1.936   2.061   2.086   2.389   2.591
  2.599   2.764   2.950   3.690   3.919   4.285
 --------------------------------------------------------------
 
          Ground-State Mulliken Net Atomic Charges

     Atom                 Charge (a.u.)
  ----------------------------------------
      1 O                    -0.166434
      2 C                     0.173512
      3 Cl                   -0.191705
      4 H                     0.184627
  ----------------------------------------
  Sum of atomic charges =     0.000000

 -----------------------------------------------------------------
                    Cartesian Multipole Moments
 -----------------------------------------------------------------
    Charge (ESU x 10^10)
                -0.0000
    Dipole Moment (Debye)
         X      -1.3567      Y      -0.0000      Z       0.5490
       Tot       1.4636
    Quadrupole Moments (Debye-Ang)
        XX     -28.2199     XY      -0.0000     YY     -23.7200
        XZ      -1.9393     YZ      -0.0000     ZZ     -22.4898
    Octopole Moments (Debye-Ang^2)
       XXX    -113.3876    XXY      -0.0000    XYY     -34.9325
       YYY      -0.0000    XXZ     -38.4466    XYZ      -0.0000
       YYZ     -28.6875    XZZ     -34.3148    YZZ      -0.0000
       ZZZ     -79.1126
    Hexadecapole Moments (Debye-Ang^3)
      XXXX    -696.0551   XXXY      -0.0000   XXYY    -120.5008
      XYYY      -0.0000   YYYY     -23.2286   XXXZ    -231.3672
      XXYZ      -0.0000   XYYZ     -66.9396   YYYZ      -0.0000
      XXZZ    -184.1748   XYZZ      -0.0000   YYZZ     -56.0850
      XZZZ    -189.7376   YZZZ      -0.0000   ZZZZ    -287.2211
 -----------------------------------------------------------------
 Calculating analytic gradient of the SCF energy
 Gradient of SCF Energy
            1           2           3           4
    1   0.0014732  -0.0001205  -0.0006154  -0.0007372
    2   0.0000000  -0.0000000  -0.0000000   0.0000000
    3   0.0005420   0.0000267  -0.0015430   0.0009743
 Max gradient component =       1.543E-03
 RMS gradient           =       7.490E-04
 Gradient time:  CPU 2.26 s  wall 0.28 s
 Geometry Optimization Parameters
   NAtoms,    NIC,     NZ,  NCons,   NDum,   NFix, NCnnct, MaxDiis
        4      14       4       0       0       0       0       0

 Cartesian Hessian Update
 Hessian Updated using BFGS Update


** GEOMETRY OPTIMIZATION IN DELOCALIZED INTERNAL COORDINATES **
   Searching for a Minimum

   Optimization Cycle:   8

                       Coordinates (Angstroms)
     ATOM                X               Y               Z
      1  O        -0.4980004963    0.0000000000   -0.1495000036
      2  C        -0.3697973583    0.0000000000    0.9795302012
      3  Cl        2.8680991885    0.0000000000    1.7267197960
      4  H         1.7489122285    0.0000000000    2.3674635688
   Point Group: c1    Number of degrees of freedom:     6


   Energy is   -574.111474772

 Hessian Updated using BFGS Update

  5 Hessian modes will be used to form the next step
  Hessian Eigenvalues:
     0.012775    0.129050    0.227900    0.401807    1.305164

 Minimum Search - Taking Simple RFO Step
 Searching for Lamda that Minimizes Along All modes
 Value Taken    Lamda =  -0.00042869
 Step Taken.  Stepsize is  0.158171

                             Maximum     Tolerance    Cnvgd?
         Gradient           0.005149      0.000300      NO
         Displacement       0.094432      0.001200      NO
         Energy change     -0.000683      0.000001      NO


 New Cartesian Coordinates Obtained by Inverse Iteration

 Displacement from previous Coordinates is:  0.217670
 ----------------------------------------------------------------
             Standard Nuclear Orientation (Angstroms)
    I     Atom           X                Y                Z
 ----------------------------------------------------------------
    1      O      -0.5510053589     0.0000000000    -0.1722955348
    2      C      -0.4140430343     0.0000000000     0.9560490847
    3      Cl      2.9296668043     0.0000000000     1.7753038169
    4      H       1.7845951512     0.0000000000     2.3651561956
 ----------------------------------------------------------------
 Nuclear Repulsion Energy =    65.4974244251 hartrees
 There are       16 alpha and       16 beta electrons
 Applying Cartesian multipole field
    Component          Value
    ---------          -----
     (2,0,0)        1.00000E-11
     (0,2,0)        2.00000E-10
     (0,0,2)       -3.00000E-11
 Nucleus-field energy     =    -0.0000000015 hartrees
 Requested basis set is 6-31G(d,p)
 There are 16 shells and 54 basis functions
 A cutoff of  1.0D-11 yielded    123 shell pairs
 There are      1493 function pairs
 Smallest overlap matrix eigenvalue = 7.54E-03
 Guess MOs from SCF MO coefficient file

 -----------------------------------------------------------------------
  General SCF calculation program by
  Eric Jon Sundstrom, Paul Horn, Yuezhi Mao, Dmitri Zuev, Alec White,
  David Stuck, Shaama M.S., Shane Yost, Joonho Lee, David Small,
  Daniel Levine, Susi Lehtola, Hugh Burton, Evgeny Epifanovsky
 -----------------------------------------------------------------------
 Exchange:     0.2000 Hartree-Fock + 0.0800 Slater + 0.7200 B88
 Correlation:  0.1900 VWN1RPA + 0.8100 LYP
 Using SG-1 standard quadrature grid
 using 8 threads for integral computing
 -------------------------------------------------------
 OpenMP Integral computing Module                
 Release: version 1.0, May 2013, Q-Chem Inc. Pittsburgh 
 -------------------------------------------------------
 -------------------------------------------------------
 OpenMP BLAS3 based DFT computing Module                
 Release: version 1.0, May 2013, Q-Chem Inc. Pittsburgh 
 -------------------------------------------------------
 A restricted SCF calculation will be
 performed using DIIS
 SCF converges when DIIS error is below 1.0e-08
 ---------------------------------------
  Cycle       Energy         DIIS error
 ---------------------------------------
    1    -574.1113776945      7.19e-04  
    2    -574.1117672783      1.05e-04  
    3    -574.1117688150      1.35e-04  
    4    -574.1117733978      5.01e-05  
    5    -574.1117740811      6.34e-06  
    6    -574.1117740962      1.40e-06  
    7    -574.1117740970      2.01e-07  
    8    -574.1117740970      3.81e-08  
    9    -574.1117740970      8.66e-09  Convergence criterion met
 ---------------------------------------
 SCF time:   CPU 3.01s  wall 1.00s 
 SCF   energy in the final basis set =     -574.1117740970
 Total energy in the final basis set =     -574.1117740970
 
 --------------------------------------------------------------
 
                    Orbital Energies (a.u.)
 --------------------------------------------------------------
 
 Alpha MOs
 -- Occupied --
******* -19.269 -10.316  -9.473  -7.236  -7.227  -7.227  -1.169
 -0.846  -0.580  -0.480  -0.478  -0.471  -0.386  -0.331  -0.330
 -- Virtual --
 -0.039  -0.033   0.029   0.251   0.361   0.403   0.428   0.429
  0.511   0.530   0.634   0.743   0.758   0.792   0.802   0.816
  0.865   0.866   0.909   0.940   1.183   1.393   1.468   1.472
  1.530   1.534   1.933   1.934   2.062   2.080   2.387   2.590
  2.597   2.766   2.948   3.685   3.915   4.283
 --------------------------------------------------------------
 
          Ground-State Mulliken Net Atomic Charges

     Atom                 Charge (a.u.)
  ----------------------------------------
      1 O                    -0.165918
      2 C                     0.173894
      3 Cl                   -0.191880
      4 H                     0.183904
  ----------------------------------------
  Sum of atomic charges =    -0.000000

 -----------------------------------------------------------------
                    Cartesian Multipole Moments
 -----------------------------------------------------------------
    Charge (ESU x 10^10)
                -0.0000
    Dipole Moment (Debye)
         X      -1.4050      Y      -0.0000      Z       0.4910
       Tot       1.4884
    Quadrupole Moments (Debye-Ang)
        XX     -28.4287     XY      -0.0000     YY     -23.7203
        XZ      -2.1253     YZ      -0.0000     ZZ     -22.7597
    Octopole Moments (Debye-Ang^2)
       XXX    -115.0707    XXY      -0.0000    XYY     -35.2988
       YYY      -0.0000    XXZ     -39.3783    XYZ      -0.0000
       YYZ     -29.1020    XZZ     -35.3266    YZZ      -0.0000
       ZZZ     -81.0706
    Hexadecapole Moments (Debye-Ang^3)
      XXXX    -727.0712   XXXY      -0.0000   XXYY    -125.7523
      XYYY      -0.0000   YYYY     -23.2264   XXXZ    -242.5788
      XXYZ      -0.0000   XYYZ     -70.2156   YYYZ      -0.0000
      XXZZ    -193.6626   XYZZ      -0.0000   YYZZ     -58.1513
      XZZZ    -201.6501   YZZZ      -0.0000   ZZZZ    -301.4067
 -----------------------------------------------------------------
 Calculating analytic gradient of the SCF energy
 Gradient of SCF Energy
            1           2           3           4
    1   0.0012786  -0.0008846  -0.0007143   0.0003203
    2   0.0000000  -0.0000000  -0.0000000   0.0000000
    3  -0.0002954   0.0005680  -0.0006158   0.0003433
 Max gradient component =       1.279E-03
 RMS gradient           =       5.728E-04
 Gradient time:  CPU 2.23 s  wall 0.28 s
 Geometry Optimization Parameters
   NAtoms,    NIC,     NZ,  NCons,   NDum,   NFix, NCnnct, MaxDiis
        4      14       4       0       0       0       0       0

 Cartesian Hessian Update
 Hessian Updated using BFGS Update


** GEOMETRY OPTIMIZATION IN DELOCALIZED INTERNAL COORDINATES **
   Searching for a Minimum

   Optimization Cycle:   9

                       Coordinates (Angstroms)
     ATOM                X               Y               Z
      1  O        -0.5510053589    0.0000000000   -0.1722955348
      2  C        -0.4140430343    0.0000000000    0.9560490847
      3  Cl        2.9296668043    0.0000000000    1.7753038169
      4  H         1.7845951512    0.0000000000    2.3651561956
   Point Group: c1    Number of degrees of freedom:     6


   Energy is   -574.111774097

 Hessian Updated using BFGS Update

  5 Hessian modes will be used to form the next step
  Hessian Eigenvalues:
     0.009119    0.130549    0.183381    0.402738    1.306945

 Minimum Search - Taking Simple RFO Step
 Searching for Lamda that Minimizes Along All modes
 Value Taken    Lamda =  -0.00017919
 Step Taken.  Stepsize is  0.113423

                             Maximum     Tolerance    Cnvgd?
         Gradient           0.003210      0.000300      NO
         Displacement       0.066181      0.001200      NO
         Energy change     -0.000299      0.000001      NO


 New Cartesian Coordinates Obtained by Inverse Iteration

 Displacement from previous Coordinates is:  0.173210
 ----------------------------------------------------------------
             Standard Nuclear Orientation (Angstroms)
    I     Atom           X                Y                Z
 ----------------------------------------------------------------
    1      O      -0.5987890403     0.0000000000    -0.1898453227
    2      C      -0.4412985872     0.0000000000     0.9359265343
    3      Cl      2.9776271754     0.0000000000     1.8155779090
    4      H       1.8116740144     0.0000000000     2.3625544418
 ----------------------------------------------------------------
 Nuclear Repulsion Energy =    64.5681833941 hartrees
 There are       16 alpha and       16 beta electrons
 Applying Cartesian multipole field
    Component          Value
    ---------          -----
     (2,0,0)        1.00000E-11
     (0,2,0)        2.00000E-10
     (0,0,2)       -3.00000E-11
 Nucleus-field energy     =    -0.0000000016 hartrees
 Requested basis set is 6-31G(d,p)
 There are 16 shells and 54 basis functions
 A cutoff of  1.0D-11 yielded    121 shell pairs
 There are      1445 function pairs
 Smallest overlap matrix eigenvalue = 7.59E-03
 Guess MOs from SCF MO coefficient file

 -----------------------------------------------------------------------
  General SCF calculation program by
  Eric Jon Sundstrom, Paul Horn, Yuezhi Mao, Dmitri Zuev, Alec White,
  David Stuck, Shaama M.S., Shane Yost, Joonho Lee, David Small,
  Daniel Levine, Susi Lehtola, Hugh Burton, Evgeny Epifanovsky
 -----------------------------------------------------------------------
 Exchange:     0.2000 Hartree-Fock + 0.0800 Slater + 0.7200 B88
 Correlation:  0.1900 VWN1RPA + 0.8100 LYP
 Using SG-1 standard quadrature grid
 using 8 threads for integral computing
 -------------------------------------------------------
 OpenMP Integral computing Module                
 Release: version 1.0, May 2013, Q-Chem Inc. Pittsburgh 
 -------------------------------------------------------
 -------------------------------------------------------
 OpenMP BLAS3 based DFT computing Module                
 Release: version 1.0, May 2013, Q-Chem Inc. Pittsburgh 
 -------------------------------------------------------
 A restricted SCF calculation will be
 performed using DIIS
 SCF converges when DIIS error is below 1.0e-08
 ---------------------------------------
  Cycle       Energy         DIIS error
 ---------------------------------------
    1    -574.1114145949      8.31e-04  
    2    -574.1118941472      1.11e-04  
    3    -574.1119000790      7.80e-05  
    4    -574.1119008168      6.52e-05  
    5    -574.1119019510      7.32e-06  
    6    -574.1119019706      1.51e-06  
    7    -574.1119019715      3.30e-07  
    8    -574.1119019716      4.10e-08  
    9    -574.1119019716      1.15e-08  
   10    -574.1119019716      1.13e-09  Convergence criterion met
 ---------------------------------------
 SCF time:   CPU 3.28s  wall 1.00s 
 SCF   energy in the final basis set =     -574.1119019716
 Total energy in the final basis set =     -574.1119019716
 
 --------------------------------------------------------------
 
                    Orbital Energies (a.u.)
 --------------------------------------------------------------
 
 Alpha MOs
 -- Occupied --
******* -19.269 -10.316  -9.472  -7.236  -7.227  -7.226  -1.169
 -0.846  -0.580  -0.480  -0.478  -0.471  -0.387  -0.330  -0.330
 -- Virtual --
 -0.039  -0.033   0.029   0.252   0.358   0.401   0.427   0.431
  0.509   0.529   0.624   0.742   0.763   0.792   0.802   0.814
  0.866   0.866   0.909   0.937   1.183   1.389   1.468   1.471
  1.530   1.533   1.933   1.934   2.062   2.076   2.387   2.589
  2.596   2.767   2.947   3.682   3.913   4.282
 --------------------------------------------------------------
 
          Ground-State Mulliken Net Atomic Charges

     Atom                 Charge (a.u.)
  ----------------------------------------
      1 O                    -0.165797
      2 C                     0.174223
      3 Cl                   -0.192117
      4 H                     0.183691
  ----------------------------------------
  Sum of atomic charges =    -0.000000

 -----------------------------------------------------------------
                    Cartesian Multipole Moments
 -----------------------------------------------------------------
    Charge (ESU x 10^10)
                -0.0000
    Dipole Moment (Debye)
         X      -1.4425      Y      -0.0000      Z       0.4426
       Tot       1.5089
    Quadrupole Moments (Debye-Ang)
        XX     -28.6087     XY      -0.0000     YY     -23.7211
        XZ      -2.3016     YZ      -0.0000     ZZ     -22.9817
    Octopole Moments (Debye-Ang^2)
       XXX    -116.4431    XXY      -0.0000    XYY     -35.5926
       YYY      -0.0000    XXZ     -40.1290    XYZ      -0.0000
       YYZ     -29.4510    XZZ     -36.2143    YZZ      -0.0000
       ZZZ     -82.7248
    Hexadecapole Moments (Debye-Ang^3)
      XXXX    -751.9902   XXXY      -0.0000   XXYY    -129.9576
      XYYY      -0.0000   YYYY     -23.2266   XXXZ    -251.9111
      XXYZ      -0.0000   XYYZ     -72.9871   YYYZ      -0.0000
      XXZZ    -201.3874   XYZZ      -0.0000   YYZZ     -59.9140
      XZZZ    -211.8872   YZZZ      -0.0000   ZZZZ    -313.5878
 -----------------------------------------------------------------
 Calculating analytic gradient of the SCF energy
 Gradient of SCF Energy
            1           2           3           4
    1   0.0011607  -0.0012520  -0.0006157   0.0007071
    2   0.0000000  -0.0000000  -0.0000000   0.0000000
    3  -0.0005429   0.0006360  -0.0002124   0.0001193
 Max gradient component =       1.252E-03
 RMS gradient           =       6.159E-04
 Gradient time:  CPU 2.25 s  wall 0.28 s
 Geometry Optimization Parameters
   NAtoms,    NIC,     NZ,  NCons,   NDum,   NFix, NCnnct, MaxDiis
        4      14       4       0       0       0       0       0

 Cartesian Hessian Update
 Hessian Updated using BFGS Update


** GEOMETRY OPTIMIZATION IN DELOCALIZED INTERNAL COORDINATES **
   Searching for a Minimum

   Optimization Cycle:  10

                       Coordinates (Angstroms)
     ATOM                X               Y               Z
      1  O        -0.5987890403    0.0000000000   -0.1898453227
      2  C        -0.4412985872    0.0000000000    0.9359265343
      3  Cl        2.9776271754    0.0000000000    1.8155779090
      4  H         1.8116740144    0.0000000000    2.3625544418
   Point Group: c1    Number of degrees of freedom:     6


   Energy is   -574.111901972

 Hessian Updated using BFGS Update

  5 Hessian modes will be used to form the next step
  Hessian Eigenvalues:
     0.007197    0.124198    0.134119    0.402246    1.307275

 Minimum Search - Taking Simple RFO Step
 Searching for Lamda that Minimizes Along All modes
 Value Taken    Lamda =  -0.00011618
 Step Taken.  Stepsize is  0.089881

                             Maximum     Tolerance    Cnvgd?
         Gradient           0.002144      0.000300      NO
         Displacement       0.061773      0.001200      NO
         Energy change     -0.000128      0.000001      NO


 New Cartesian Coordinates Obtained by Inverse Iteration

 Displacement from previous Coordinates is:  0.156945
 ----------------------------------------------------------------
             Standard Nuclear Orientation (Angstroms)
[...]
      XXYZ       0.0000   XYYZ     -98.0047   YYYZ       0.0000
      XXZZ    -238.7330   XYZZ       0.0000   YYZZ     -89.1570
      XZZZ    -314.0292   YZZZ       0.0000   ZZZZ    -529.5674
 -----------------------------------------------------------------
 Calculating analytic gradient of the SCF energy
 Gradient of SCF Energy
            1           2           3           4
    1  -0.0010447   0.0010239  -0.0000875   0.0001083
    2  -0.0000000   0.0000000  -0.0000000   0.0000000
    3  -0.0006564   0.0007035  -0.0000748   0.0000276
 Max gradient component =       1.045E-03
 RMS gradient           =       5.075E-04
 Gradient time:  CPU 2.27 s  wall 0.29 s
 Geometry Optimization Parameters
   NAtoms,    NIC,     NZ,  NCons,   NDum,   NFix, NCnnct, MaxDiis
        4      14       4       0       0       0       0       0

 Cartesian Hessian Update
 Hessian Updated using BFGS Update


** GEOMETRY OPTIMIZATION IN CARTESIAN COORDINATES **
   Searching for a Minimum

   Optimization Cycle:  37

                       Coordinates (Angstroms)
     ATOM                X               Y               Z
      1  O        -1.0606645448    0.0000000000    0.0949617995
      2  C        -0.0786695242    0.0000000000    0.6649750555
      3  Cl        3.0071545297    0.0000000000    2.4008550323
      4  H         1.8813931016    0.0000000000    1.7634216750
   Point Group: c1    Number of degrees of freedom:     6


   Energy is   -574.115129677


 Translations and Rotations Projected Out of Hessian

  5 Hessian modes will be used to form the next step
  Hessian Eigenvalues:
     0.003453    0.007828    0.013373    0.676083    3.047685

 Minimum Search - Taking Simple RFO Step
 Searching for Lamda that Minimizes Along All modes
 Value Taken    Lamda =  -0.00000242
 Step Taken.  Stepsize is  0.015805

                             Maximum     Tolerance    Cnvgd?
         Gradient           0.001045      0.000300      NO
         Displacement       0.008996      0.001200      NO
         Energy change     -0.000003      0.000001      NO

 ----------------------------------------------------------------
             Standard Nuclear Orientation (Angstroms)
    I     Atom           X                Y                Z
 ----------------------------------------------------------------
    1      O      -1.0619204352     0.0000000000     0.0997221330
    2      C      -0.0750739543     0.0000000000     0.6605631413
    3      Cl      3.0050471130     0.0000000000     2.4027737963
    4      H       1.8811608389     0.0000000000     1.7611544918
 ----------------------------------------------------------------
 Nuclear Repulsion Energy =    62.6475156031 hartrees
 There are       16 alpha and       16 beta electrons
 Applying Cartesian multipole field
    Component          Value
    ---------          -----
     (2,0,0)        1.00000E-11
     (0,2,0)        2.00000E-10
     (0,0,2)       -3.00000E-11
 Nucleus-field energy     =    -0.0000000052 hartrees
 Requested basis set is 6-31G(d,p)
 There are 16 shells and 54 basis functions
 A cutoff of  1.0D-11 yielded    120 shell pairs
 There are      1406 function pairs
 Smallest overlap matrix eigenvalue = 5.38E-03
 Guess MOs from SCF MO coefficient file

 -----------------------------------------------------------------------
  General SCF calculation program by
  Eric Jon Sundstrom, Paul Horn, Yuezhi Mao, Dmitri Zuev, Alec White,
  David Stuck, Shaama M.S., Shane Yost, Joonho Lee, David Small,
  Daniel Levine, Susi Lehtola, Hugh Burton, Evgeny Epifanovsky
 -----------------------------------------------------------------------
 Exchange:     0.2000 Hartree-Fock + 0.0800 Slater + 0.7200 B88
 Correlation:  0.1900 VWN1RPA + 0.8100 LYP
 Using SG-1 standard quadrature grid
 using 8 threads for integral computing
 -------------------------------------------------------
 OpenMP Integral computing Module                
 Release: version 1.0, May 2013, Q-Chem Inc. Pittsburgh 
 -------------------------------------------------------
 -------------------------------------------------------
 OpenMP BLAS3 based DFT computing Module                
 Release: version 1.0, May 2013, Q-Chem Inc. Pittsburgh 
 -------------------------------------------------------
 A restricted SCF calculation will be
 performed using DIIS
 SCF converges when DIIS error is below 1.0e-08
 ---------------------------------------
  Cycle       Energy         DIIS error
 ---------------------------------------
    1    -574.1150658019      3.17e-04  
    2    -574.1151300337      4.32e-05  
    3    -574.1151310329      1.14e-05  
    4    -574.1151310531      1.14e-05  
    5    -574.1151310846      3.56e-06  
    6    -574.1151310885      4.11e-07  
    7    -574.1151310886      6.04e-08  
    8    -574.1151310886      1.86e-08  
    9    -574.1151310886      2.65e-09  Convergence criterion met
 ---------------------------------------
 SCF time:   CPU 3.03s  wall 0.00s 
 SCF   energy in the final basis set =     -574.1151310886
 Total energy in the final basis set =     -574.1151310886
 
 --------------------------------------------------------------
 
                    Orbital Energies (a.u.)
 --------------------------------------------------------------
 
 Alpha MOs
 -- Occupied --
******* -19.287 -10.335  -9.458  -7.221  -7.212  -7.212  -1.187
 -0.832  -0.596  -0.495  -0.495  -0.468  -0.399  -0.318  -0.318
 -- Virtual --
 -0.050  -0.050   0.050   0.265   0.377   0.413   0.436   0.436
  0.498   0.498   0.639   0.734   0.772   0.816   0.816   0.879
  0.879   0.895   0.895   1.036   1.183   1.451   1.451   1.513
  1.513   1.545   1.917   1.917   2.076   2.077   2.378   2.574
  2.574   2.763   2.964   3.761   4.047   4.311
 --------------------------------------------------------------
 
          Ground-State Mulliken Net Atomic Charges

     Atom                 Charge (a.u.)
  ----------------------------------------
      1 O                    -0.180664
      2 C                     0.236726
      3 Cl                   -0.199517
      4 H                     0.143454
  ----------------------------------------
  Sum of atomic charges =    -0.000000

 -----------------------------------------------------------------
                    Cartesian Multipole Moments
 -----------------------------------------------------------------
    Charge (ESU x 10^10)
                -0.0000
    Dipole Moment (Debye)
         X      -1.9740      Y      -0.0000      Z      -1.1222
       Tot       2.2707
    Quadrupole Moments (Debye-Ang)
        XX     -31.4514     XY      -0.0000     YY     -23.7447
        XZ      -5.7553     YZ      -0.0000     ZZ     -27.7978
    Octopole Moments (Debye-Ang^2)
       XXX    -122.4266    XXY      -0.0000    XYY     -36.0294
       YYY      -0.0000    XXZ     -50.5614    XYZ      -0.0000
       YYZ     -37.0565    XZZ     -47.7072    YZZ      -0.0000
       ZZZ    -120.6267
    Hexadecapole Moments (Debye-Ang^3)
      XXXX    -812.7005   XXXY      -0.0000   XXYY    -136.2444
      XYYY      -0.0000   YYYY     -23.3157   XXXZ    -314.4269
      XXYZ      -0.0000   XYYZ     -98.0041   YYYZ      -0.0000
      XXZZ    -238.6592   XYZZ      -0.0000   YYZZ     -89.2503
      XZZZ    -314.0005   YZZZ      -0.0000   ZZZZ    -530.1068
 -----------------------------------------------------------------
 Calculating analytic gradient of the SCF energy
 Gradient of SCF Energy
            1           2           3           4
    1  -0.0003162   0.0003210   0.0001194  -0.0001242
    2   0.0000000  -0.0000000   0.0000000  -0.0000000
    3  -0.0001839   0.0002199   0.0000436  -0.0000797
 Max gradient component =       3.210E-04
 RMS gradient           =       1.641E-04
 Gradient time:  CPU 2.26 s  wall 0.29 s
 Geometry Optimization Parameters
   NAtoms,    NIC,     NZ,  NCons,   NDum,   NFix, NCnnct, MaxDiis
        4      14       4       0       0       0       0       0

 Cartesian Hessian Update
 Hessian Updated using BFGS Update


** GEOMETRY OPTIMIZATION IN CARTESIAN COORDINATES **
   Searching for a Minimum

   Optimization Cycle:  38

                       Coordinates (Angstroms)
     ATOM                X               Y               Z
      1  O        -1.0619204352    0.0000000000    0.0997221330
      2  C        -0.0750739543    0.0000000000    0.6605631413
      3  Cl        3.0050471130    0.0000000000    2.4027737963
      4  H         1.8811608389    0.0000000000    1.7611544918
   Point Group: c1    Number of degrees of freedom:     6


   Energy is   -574.115131089


 Translations and Rotations Projected Out of Hessian

  5 Hessian modes will be used to form the next step
  Hessian Eigenvalues:
     0.003245    0.008047    0.012116    0.747866    2.525672

 Minimum Search - Taking Simple RFO Step
 Searching for Lamda that Minimizes Along All modes
 Value Taken    Lamda =   0.00000000
 Step Taken.  Stepsize is  0.005786

                             Maximum     Tolerance    Cnvgd?
         Gradient           0.000321      0.000300      NO
         Displacement       0.004239      0.001200      NO
         Energy change     -0.000001      0.000001      NO

 ----------------------------------------------------------------
             Standard Nuclear Orientation (Angstroms)
    I     Atom           X                Y                Z
 ----------------------------------------------------------------
    1      O      -1.0631892405     0.0000000000     0.1009450876
    2      C      -0.0744753966     0.0000000000     0.6583201326
    3      Cl      3.0051669169     0.0000000000     2.4034300358
    4      H       1.8817112826     0.0000000000     1.7615183064
 ----------------------------------------------------------------
 Nuclear Repulsion Energy =    62.6417355919 hartrees
 There are       16 alpha and       16 beta electrons
 Applying Cartesian multipole field
    Component          Value
    ---------          -----
     (2,0,0)        1.00000E-11
     (0,2,0)        2.00000E-10
     (0,0,2)       -3.00000E-11
 Nucleus-field energy     =    -0.0000000052 hartrees
 Requested basis set is 6-31G(d,p)
 There are 16 shells and 54 basis functions
 A cutoff of  1.0D-11 yielded    120 shell pairs
 There are      1406 function pairs
 Smallest overlap matrix eigenvalue = 5.38E-03
 Guess MOs from SCF MO coefficient file

 -----------------------------------------------------------------------
  General SCF calculation program by
  Eric Jon Sundstrom, Paul Horn, Yuezhi Mao, Dmitri Zuev, Alec White,
  David Stuck, Shaama M.S., Shane Yost, Joonho Lee, David Small,
  Daniel Levine, Susi Lehtola, Hugh Burton, Evgeny Epifanovsky
 -----------------------------------------------------------------------
 Exchange:     0.2000 Hartree-Fock + 0.0800 Slater + 0.7200 B88
 Correlation:  0.1900 VWN1RPA + 0.8100 LYP
 Using SG-1 standard quadrature grid
 using 8 threads for integral computing
 -------------------------------------------------------
 OpenMP Integral computing Module                
 Release: version 1.0, May 2013, Q-Chem Inc. Pittsburgh 
 -------------------------------------------------------
 -------------------------------------------------------
 OpenMP BLAS3 based DFT computing Module                
 Release: version 1.0, May 2013, Q-Chem Inc. Pittsburgh 
 -------------------------------------------------------
 A restricted SCF calculation will be
 performed using DIIS
 SCF converges when DIIS error is below 1.0e-08
 ---------------------------------------
  Cycle       Energy         DIIS error
 ---------------------------------------
    1    -574.1151221370      1.19e-04  
    2    -574.1151311263      1.65e-05  
    3    -574.1151312498      9.36e-06  
    4    -574.1151312512      9.55e-06  
    5    -574.1151312758      7.44e-07  
    6    -574.1151312760      1.42e-07  
    7    -574.1151312760      1.31e-08  
    8    -574.1151312760      4.64e-09  Convergence criterion met
 ---------------------------------------
 SCF time:   CPU 2.60s  wall 0.00s 
 SCF   energy in the final basis set =     -574.1151312760
 Total energy in the final basis set =     -574.1151312760
 
 --------------------------------------------------------------
 
                    Orbital Energies (a.u.)
 --------------------------------------------------------------
 
 Alpha MOs
 -- Occupied --
******* -19.287 -10.335  -9.458  -7.221  -7.212  -7.212  -1.187
 -0.832  -0.596  -0.495  -0.495  -0.468  -0.399  -0.318  -0.318
 -- Virtual --
 -0.050  -0.050   0.050   0.265   0.377   0.413   0.436   0.436
  0.498   0.498   0.639   0.734   0.772   0.816   0.816   0.879
  0.879   0.895   0.895   1.036   1.183   1.451   1.451   1.513
  1.513   1.545   1.917   1.917   2.077   2.077   2.378   2.574
  2.574   2.764   2.964   3.761   4.047   4.311
 --------------------------------------------------------------
 
          Ground-State Mulliken Net Atomic Charges

     Atom                 Charge (a.u.)
  ----------------------------------------
      1 O                    -0.180573
      2 C                     0.236516
      3 Cl                   -0.199470
      4 H                     0.143527
  ----------------------------------------
  Sum of atomic charges =    -0.000000

 -----------------------------------------------------------------
                    Cartesian Multipole Moments
 -----------------------------------------------------------------
    Charge (ESU x 10^10)
                -0.0000
    Dipole Moment (Debye)
         X      -1.9724      Y       0.0000      Z      -1.1226
       Tot       2.2695
    Quadrupole Moments (Debye-Ang)
        XX     -31.4519     XY      -0.0000     YY     -23.7443
        XZ      -5.7501     YZ      -0.0000     ZZ     -27.7929
    Octopole Moments (Debye-Ang^2)
       XXX    -122.4079    XXY      -0.0000    XYY     -36.0273
       YYY      -0.0000    XXZ     -50.5614    XYZ      -0.0000
       YYZ     -37.0590    XZZ     -47.6990    YZZ      -0.0000
       ZZZ    -120.6258
    Hexadecapole Moments (Debye-Ang^3)
      XXXX    -812.8232   XXXY      -0.0000   XXYY    -136.2654
      XYYY      -0.0000   YYYY     -23.3148   XXXZ    -314.4831
      XXYZ      -0.0000   XYYZ     -98.0278   YYYZ      -0.0000
      XXZZ    -238.6958   XYZZ      -0.0000   YYZZ     -89.2754
      XZZZ    -314.0614   YZZZ      -0.0000   ZZZZ    -530.2450
 -----------------------------------------------------------------
 Calculating analytic gradient of the SCF energy
 Gradient of SCF Energy
            1           2           3           4
    1  -0.0001409   0.0001423   0.0000179  -0.0000192
    2  -0.0000000   0.0000000   0.0000000  -0.0000000
    3  -0.0000632   0.0000827  -0.0000220   0.0000026
 Max gradient component =       1.423E-04
 RMS gradient           =       6.591E-05
 Gradient time:  CPU 2.27 s  wall 0.29 s
 Geometry Optimization Parameters
   NAtoms,    NIC,     NZ,  NCons,   NDum,   NFix, NCnnct, MaxDiis
        4      14       4       0       0       0       0       0

 Cartesian Hessian Update
 Hessian Updated using BFGS Update


** GEOMETRY OPTIMIZATION IN CARTESIAN COORDINATES **
   Searching for a Minimum

   Optimization Cycle:  39

                       Coordinates (Angstroms)
     ATOM                X               Y               Z
      1  O        -1.0631892405    0.0000000000    0.1009450876
      2  C        -0.0744753966    0.0000000000    0.6583201326
      3  Cl        3.0051669169    0.0000000000    2.4034300358
      4  H         1.8817112826    0.0000000000    1.7615183064
   Point Group: c1    Number of degrees of freedom:     6


   Energy is   -574.115131276


 Translations and Rotations Projected Out of Hessian

  5 Hessian modes will be used to form the next step
  Hessian Eigenvalues:
     0.002706    0.007234    0.017754    0.769321    1.976457

 Minimum Search - Taking Simple RFO Step
 Searching for Lamda that Minimizes Along All modes
 Value Taken    Lamda =   0.00000000
 Step Taken.  Stepsize is  0.003657

                             Maximum     Tolerance    Cnvgd?
         Gradient           0.000142      0.000300     YES
         Displacement       0.001946      0.001200      NO
         Energy change     -0.000000      0.000001     YES


                       Distance Matrix (Angstroms)
             O (  1)   C (  2)   Cl(  3)
   C (  2)  1.134999
   Cl(  3)  4.674715  3.539718
   H (  4)  3.380820  2.245821  1.293910
 
 Final energy is   -574.115131276019     


 ******************************
 **  OPTIMIZATION CONVERGED  **
 ******************************

                       Coordinates (Angstroms)
     ATOM                X               Y               Z
      1  O        -1.0631892405    0.0000000000    0.1009450876
      2  C        -0.0744753966    0.0000000000    0.6583201326
      3  Cl        3.0051669169    0.0000000000    2.4034300358
      4  H         1.8817112826    0.0000000000    1.7615183064

Z-matrix Print:
$molecule
0 1
C 
O  1 1.134999
H  1 2.245821 2 179.990612
Cl 3 1.293910 1 179.678511 2 -0.000000 0
$end

 
 --------------------------------------------------------------
 
                    Orbital Energies (a.u.)
 --------------------------------------------------------------
 
 Alpha MOs
 -- Occupied --
******* -19.287 -10.335  -9.458  -7.221  -7.212  -7.212  -1.187
 -0.832  -0.596  -0.495  -0.495  -0.468  -0.399  -0.318  -0.318
 -- Virtual --
 -0.050  -0.050   0.050   0.265   0.377   0.413   0.436   0.436
  0.498   0.498   0.639   0.734   0.772   0.816   0.816   0.879
  0.879   0.895   0.895   1.036   1.183   1.451   1.451   1.513
  1.513   1.545   1.917   1.917   2.077   2.077   2.378   2.574
  2.574   2.764   2.964   3.761   4.047   4.311
 --------------------------------------------------------------
 
          Ground-State Mulliken Net Atomic Charges

     Atom                 Charge (a.u.)
  ----------------------------------------
      1 O                    -0.180573
      2 C                     0.236516
      3 Cl                   -0.199470
      4 H                     0.143527
  ----------------------------------------
  Sum of atomic charges =    -0.000000

 -----------------------------------------------------------------
                    Cartesian Multipole Moments
 -----------------------------------------------------------------
    Charge (ESU x 10^10)
                -0.0000
    Dipole Moment (Debye)
         X      -1.9724      Y       0.0000      Z      -1.1226
       Tot       2.2695
    Quadrupole Moments (Debye-Ang)
        XX     -31.4519     XY      -0.0000     YY     -23.7443
        XZ      -5.7501     YZ      -0.0000     ZZ     -27.7929
    Octopole Moments (Debye-Ang^2)
       XXX    -122.4079    XXY      -0.0000    XYY     -36.0273
       YYY      -0.0000    XXZ     -50.5614    XYZ      -0.0000
       YYZ     -37.0590    XZZ     -47.6990    YZZ      -0.0000
       ZZZ    -120.6258
    Hexadecapole Moments (Debye-Ang^3)
      XXXX    -812.8232   XXXY      -0.0000   XXYY    -136.2654
      XYYY      -0.0000   YYYY     -23.3148   XXXZ    -314.4831
      XXYZ      -0.0000   XYYZ     -98.0278   YYYZ      -0.0000
      XXZZ    -238.6958   XYZZ      -0.0000   YYZZ     -89.2754
      XZZZ    -314.0614   YZZZ      -0.0000   ZZZZ    -530.2450
 -----------------------------------------------------------------
Archival summary:
1\1\node1\OPT\ProcedureUnspecified\6-31G**\l1111\songzl\ThuApr616:07:292023ThuApr616:07:292023\0\\#,OPT,ProcedureUnspecified,6-31G**,\\0,1\C\O,1,1.135\H,1,2.24582,2,179.991\Cl,3,1.29391,1,179.679,2,-0,0\\\@

 Total job time:  29.25s(wall), 229.81s(cpu) 
 Thu Apr  6 16:07:29 2023

        *************************************************************
        *                                                           *
        *  Thank you very much for using Q-Chem.  Have a nice day.  *
        *                                                           *
        *************************************************************


