
Running Job 1 of 1 qchem_batch_opt.inp
qchem qchem_batch_opt.inp_429.0 /tmp/songzl/qchem_baker_set/qchem429/ 1
/apps/apps/qchem/qc51/exe/qcprog.exe_s qchem_batch_opt.inp_429.0 /tmp/songzl/qchem_baker_set/qchem429/
Check license passed

                  Welcome to Q-Chem
     A Quantum Leap Into The Future Of Chemistry


 Q-Chem 5.1, Q-Chem, Inc., Pleasanton, CA (2018)

 Yihan Shao,  Zhengting Gan,  E. Epifanovsky,  A. T. B. Gilbert,  M. Wormit,  
 J. Kussmann,  A. W. Lange,  A. Behn,  Jia Deng,  Xintian Feng,  D. Ghosh,  
 M. Goldey,  P. R. Horn,  L. D. Jacobson,  I. Kaliman,  T. Kus,  A. Landau,  
 Jie Liu,  E. I. Proynov,  R. M. Richard,  R. P. Steele,  E. J. Sundstrom,  
 H. L. Woodcock III,  P. M. Zimmerman,  D. Zuev,  B. Albrecht,  E. Alguire,  
 S. A. Baeppler,  D. Barton,  Z. Benda,  Y. A. Bernard,  E. J. Berquist,  
 K. B. Bravaya,  H. Burton,  D. Casanova,  Chun-Min Chang,  Yunqing Chen,  
 A. Chien,  K. D. Closser,  M. P. Coons,  S. Coriani,  S. Dasgupta,  
 A. L. Dempwolff,  M. Diedenhofen,  Hainam Do,  R. G. Edgar,  Po-Tung Fang,  
 S. Faraji,  S. Fatehi,  Qingguo Feng,  K. D. Fenk,  J. Fosso-Tande,  
 Qinghui Ge,  A. Ghysels,  G. Gidofalvi,  J. Gomes,  J. Gonthier,  A. Gunina,  
 D. Hait,  M. W. D. Hanson-Heine,  P. H. P. Harbach,  A. W. Hauser,  
 J. E. Herr,  E. G. Hohenstein,  Z. C. Holden,  Kerwin Hui,  B. C. Huynh,  
 T.-C. Jagau,  Hyunjun Ji,  B. Kaduk,  K. Khistyaev,  Jaehoon Kim,  
 P. Klunzinger,  K. Koh,  D. Kosenkov,  L. Koulias,  T. Kowalczyk,  
 C. M. Krauter,  A. Kunitsa,  Ka Un Lao,  A. Laurent,  K. V. Lawler,  
 Joonho Lee,  D. Lefrancois,  S. Lehtola,  D. S. Levine,  Yi-Pei Li,  
 You-Sheng Lin,  Fenglai Liu,  E. Livshits,  A. Luenser,  P. Manohar,  
 E. Mansoor,  S. F. Manzer,  Shan-Ping Mao,  Yuezhi Mao,  N. Mardirossian,  
 A. V. Marenich,  T. Markovich,  L. A. Martinez-Martinez,  S. A. Maurer,  
 N. J. Mayhall,  S. C. McKenzie,  J.-M. Mewes,  A. F. Morrison,  
 J. W. Mullinax,  K. Nanda,  T. S. Nguyen-Beck,  R. Olivares-Amaya,  
 J. A. Parkhill,  T. M. Perrine,  F. Plasser,  P. Pokhilko,  S. Prager,  
 A. Prociuk,  E. Ramos,  D. R. Rehn,  F. Rob,  M. Schneider,  N. Sergueev,  
 S. M. Sharada,  S. Sharma,  D. W. Small,  T. Stauch,  T. Stein,  
 Yu-Chuan Su,  A. J. W. Thom,  A. Tkatchenko,  T. Tsuchimochi,  N. M. Tubman,  
 L. Vogt,  M. L. Vidal,  O. Vydrov,  M. A. Watson,  J. Wenzel,  
 M. de Wergifosse,  T. A. Wesolowski,  A. White,  J. Witte,  A. Yamada,  
 Jun Yang,  K. Yao,  S. Yeganeh,  S. R. Yost,  Zhi-Qiang You,  A. Zech,  
 Igor Ying Zhang,  Xing Zhang,  Yan Zhao,  Ying Zhu,  B. R. Brooks,  
 G. K. L. Chan,  C. J. Cramer,  M. S. Gordon,  W. J. Hehre,  A. Klamt,  
 M. W. Schmidt,  C. D. Sherrill,  D. G. Truhlar,  A. Aspuru-Guzik,  R. Baer,  
 A. T. Bell,  N. A. Besley,  Jeng-Da Chai,  A. E. DePrince, III,  
 R. A. DiStasio Jr.,  A. Dreuw,  B. D. Dunietz,  T. R. Furlani,  
 Chao-Ping Hsu,  Yousung Jung,  Jing Kong,  D. S. Lambrecht,  WanZhen Liang,  
 C. Ochsenfeld,  V. A. Rassolov,  L. V. Slipchenko,  J. E. Subotnik,  
 T. Van Voorhis,  J. M. Herbert,  A. I. Krylov,  P. M. W. Gill,  M. Head-Gordon

 Contributors to earlier versions of Q-Chem not listed above: 
 R. D. Adamson,  B. Austin,  J. Baker,  G. J. O. Beran,  K. Brandhorst,  
 S. T. Brown,  E. F. C. Byrd,  A. K. Chakraborty,  C.-L. Cheng,  
 Siu Hung Chien,  D. M. Chipman,  D. L. Crittenden,  H. Dachsel,  
 R. J. Doerksen,  A. D. Dutoi,  L. Fusti-Molnar,  W. A. Goddard III,  
 A. Golubeva-Zadorozhnaya,  S. R. Gwaltney,  G. Hawkins,  A. Heyden,  
 S. Hirata,  G. Kedziora,  F. J. Keil,  C. Kelley,  Jihan Kim,  R. A. King,  
 R. Z. Khaliullin,  P. P. Korambath,  W. Kurlancheek,  A. M. Lee,  M. S. Lee,  
 S. V. Levchenko,  Ching Yeh Lin,  D. Liotard,  R. C. Lochan,  I. Lotan,  
 P. E. Maslen,  N. Nair,  D. P. O'Neill,  D. Neuhauser,  E. Neuscamman,  
 C. M. Oana,  R. Olson,  B. Peters,  R. Peverati,  P. A. Pieniazek,  
 Y. M. Rhee,  J. Ritchie,  M. A. Rohrdanz,  E. Rosta,  N. J. Russ,  
 H. F. Schaefer III,  N. E. Schultz,  N. Shenvi,  A. C. Simmonett,  A. Sodt,  
 D. Stuck,  K. S. Thanthiriwatte,  V. Vanovschi,  Tao Wang,  A. Warshel,  
 C. F. Williams,  Q. Wu,  X. Xu,  W. Zhang

 Please cite Q-Chem as follows:
 Y. Shao et al., Mol. Phys. 113, 184-215 (2015)
 DOI: 10.1080/00268976.2014.952696

 Q-Chem 5.1.1 for Intel X86 EM64T Linux

 Parts of Q-Chem use Armadillo 8.300.2 (Tropical Shenanigans).
 http://arma.sourceforge.net/

 Q-Chem begins on Thu Apr  6 16:34:00 2023  

Host: 
0

     Scratch files written to /tmp/songzl/qchem_baker_set/qchem429//
 Aug318 |scratch|qcdevops|jenkins|workspace|build_RNUM 6609   
Processing $rem in /apps/apps/qchem/qc51/config/preferences.
 MEM_TOTAL  1000 
The previous job contains 0 fragments, simply inherited here
Input Ideriv = 2
Curr. Ideriv = -1
Max.  Ideriv = 2

Checking the input file for inconsistencies... 	...done.

--------------------------------------------------------------
User input:
--------------------------------------------------------------
$molecule
READ ./zmat.inp
$end

$rem
mem_total               230000
mem_static              2048
job_type                optimization
basis                   6-31g**
method                  b3lyp
symmetry                false
sym_ignore              true
geom_opt_max_cycles     500
$end
--------------------------------------------------------------
 ----------------------------------------------------------------
             Standard Nuclear Orientation (Angstroms)
    I     Atom           X                Y                Z
 ----------------------------------------------------------------
    1      C       0.0000000000     0.0000000000     0.0000000000
    2      C       0.0000000000     0.0000000000     1.4200000000
    3      C       1.2167656923     0.0000000000     2.1225000000
    4      O       1.6516638930    -1.0895444449     1.8343672915
    5      C       1.6811703231    -1.0705200277     0.5248378179
    6      C       0.6550832136    -1.6961358311    -0.2126241203
    7      H       0.8555252683     0.4939377439    -0.4606539053
    8      H      -0.9878754879    -0.0000000000    -0.4606539053
    9      H      -0.9439676901     0.0000000000     1.9650000000
   10      H       1.1217659327     0.0000000000     3.2083522209
   11      H       2.0434663108     0.4939377439     1.6119203367
   12      H       0.7606046607    -1.6308979170    -1.2955411248
   13      H       0.1954607172    -2.5556596819     0.2752958635
   14      H       2.4989377511    -0.5710584758     0.0053240145
 ----------------------------------------------------------------
 Nuclear Repulsion Energy =   255.8794364836 hartrees
 There are       23 alpha and       23 beta electrons
 Requested basis set is 6-31G(d,p)
 There are 48 shells and 130 basis functions

 Total QAlloc Memory Limit 230000 MB
 Mega-Array Size      2002 MB
 MEM_STATIC part      2048 MB
 A cutoff of  1.0D-11 yielded   1138 shell pairs
 There are      8555 function pairs
 
 -------------------------------------------------------
 OpenMP Integral Computing Module                       
 Release: version 1.0, May 2013, Q-Chem Inc. Pittsburgh 
 -------------------------------------------------------
 Integral Job Info:
 Integral job number is                      11
 Integral operator is                         1
 short-range coefficients                     0
 long-range coefficients              100000000
 Omega coefficients                           0
 if combine SR and LR in K                    0
 Integral screening is                        0
 Integral computing path is                   2
 max size of driver memory is            800000
 size of driver memory is                593474
 size of scratch memory is              2361544
 max col of scratch BK array               1296
 max len of scratch array in speh3          155
 max len of scratch index in speh4           18
 max int batch size is                      520
 min int batch size is                       52
 fixed nKL is                                52
 max L of basis functions is                  2
 order of int derivative is                   0
 number of shells is                         48
 number of basis is                         130
 number of cartesian basis is               130
 number of contracted shell pairs          1138
 number of primitive shell pairs           3930
 maxK2 (contraction) of shell pair           36
 max number of K2 of shell pair               1
 max number of CS2 of shell pair             98
 max number of PS2 of shell pair            474
 mem total for path MDJ                  527196
 -------------------------------------------------------
 Smallest overlap matrix eigenvalue = 2.35E-03

 Scale SEOQF with 1.000000e-01/1.000000e-01/1.000000e-01

 Standard Electronic Orientation quadrupole field applied
 Nucleus-field energy     =    -0.0000000039 hartrees
 Guess from superposition of atomic densities
 Warning:  Energy on first SCF cycle will be non-variational
 SAD guess density has 46.000000 electrons

 -----------------------------------------------------------------------
  General SCF calculation program by
  Eric Jon Sundstrom, Paul Horn, Yuezhi Mao, Dmitri Zuev, Alec White,
  David Stuck, Shaama M.S., Shane Yost, Joonho Lee, David Small,
  Daniel Levine, Susi Lehtola, Hugh Burton, Evgeny Epifanovsky
 -----------------------------------------------------------------------
 Exchange:     0.2000 Hartree-Fock + 0.0800 Slater + 0.7200 B88
 Correlation:  0.1900 VWN1RPA + 0.8100 LYP
 Using SG-1 standard quadrature grid
 using 8 threads for integral computing
 -------------------------------------------------------
 OpenMP Integral computing Module                
 Release: version 1.0, May 2013, Q-Chem Inc. Pittsburgh 
 -------------------------------------------------------
 -------------------------------------------------------
 OpenMP BLAS3 based DFT computing Module                
 Release: version 1.0, May 2013, Q-Chem Inc. Pittsburgh 
 -------------------------------------------------------
 A restricted SCF calculation will be
 performed using DIIS
 SCF converges when DIIS error is below 1.0e-08
 ---------------------------------------
  Cycle       Energy         DIIS error
 ---------------------------------------
    1    -272.3131345036      7.31e-02  
    2    -270.0604281281      8.93e-03  
    3    -269.4838630746      1.73e-02  
    4    -270.1945527000      4.48e-03  
    5    -270.2386903713      2.01e-03  
    6    -270.2465977807      6.58e-04  
    7    -270.2472871735      3.33e-04  
    8    -270.2474915120      1.40e-04  
    9    -270.2475299844      4.85e-05  
   10    -270.2475353847      8.20e-06  
   11    -270.2475355161      2.31e-06  
   12    -270.2475355261      7.45e-07  
   13    -270.2475355271      1.69e-07  
   14    -270.2475355272      6.79e-08  
   15    -270.2475355272      1.76e-08  
   16    -270.2475355272      3.39e-09  Convergence criterion met
 ---------------------------------------
 SCF time:   CPU 23.67s  wall 3.00s 
 SCF   energy in the final basis set =     -270.2475355272
 Total energy in the final basis set =     -270.2475355272
 
 --------------------------------------------------------------
 
                    Orbital Energies (a.u.)
 --------------------------------------------------------------
 
 Alpha MOs
 -- Occupied --
-19.174 -10.234 -10.212 -10.206 -10.202 -10.126  -1.178  -0.823
 -0.764  -0.659  -0.616  -0.602  -0.520  -0.513  -0.461  -0.449
 -0.424  -0.403  -0.356  -0.342  -0.309  -0.255  -0.132
 -- Virtual --
 -0.037   0.068   0.102   0.122   0.126   0.148   0.163   0.176
  0.194   0.216   0.267   0.289   0.302   0.324   0.357   0.489
  0.513   0.532   0.561   0.571   0.593   0.598   0.640   0.672
  0.704   0.735   0.773   0.783   0.810   0.815   0.823   0.849
  0.861   0.883   0.909   0.933   0.967   1.000   1.045   1.124
  1.151   1.182   1.234   1.264   1.323   1.373   1.426   1.428
  1.553   1.590   1.625   1.714   1.736   1.771   1.819   1.878
  1.889   1.954   1.974   2.003   2.025   2.052   2.079   2.123
  2.139   2.184   2.196   2.227   2.272   2.326   2.348   2.379
  2.409   2.441   2.477   2.499   2.514   2.561   2.573   2.580
  2.628   2.672   2.721   2.732   2.740   2.761   2.834   2.876
  2.917   2.964   3.001   3.064   3.143   3.277   3.301   3.380
  3.401   3.431   3.490   3.575   3.687   4.278   4.360   4.426
  4.573   4.689   4.720
 --------------------------------------------------------------
 
          Ground-State Mulliken Net Atomic Charges

     Atom                 Charge (a.u.)
  ----------------------------------------
      1 C                    -0.242396
      2 C                    -0.165612
      3 C                     0.017226
      4 O                    -0.288988
      5 C                     0.094256
      6 C                    -0.189124
      7 H                     0.117911
      8 H                     0.119812
      9 H                     0.060365
     10 H                     0.077599
     11 H                     0.028443
     12 H                     0.121718
     13 H                     0.142233
     14 H                     0.106557
  ----------------------------------------
  Sum of atomic charges =     0.000000

 -----------------------------------------------------------------
                    Cartesian Multipole Moments
 -----------------------------------------------------------------
    Charge (ESU x 10^10)
                -0.0000
    Dipole Moment (Debye)
         X      -0.0190      Y      -0.4902      Z      -1.6237
       Tot       1.6962
    Quadrupole Moments (Debye-Ang)
        XX     -36.8265     XY       1.6649     YY     -38.3577
        XZ      -1.5480     YZ       0.7912     ZZ     -37.3101
    Octopole Moments (Debye-Ang^2)
       XXX     -94.0465    XXY      26.1902    XYY     -35.9425
       YYY      64.0363    XXZ     -37.1956    XYZ       2.5247
       YYZ     -37.1729    XZZ     -32.6463    YZZ      23.0474
       ZZZ     -95.9048
    Hexadecapole Moments (Debye-Ang^3)
      XXXX    -333.5860   XXXY      83.3064   XXYY    -109.2187
      XYYY      84.7814   YYYY    -231.8408   XXXZ    -116.1879
      XXYZ      13.2304   XYYZ     -42.1732   YYYZ      27.5465
      XXZZ    -134.3086   XYZZ      28.8566   YYZZ    -122.1082
      XZZZ    -107.5633   YZZZ      30.6702   ZZZZ    -409.6286
 -----------------------------------------------------------------
 Calculating analytic gradient of the SCF energy
 Gradient of SCF Energy
            1           2           3           4           5           6
    1   0.0266205   0.1259389   0.0532294  -0.0980953  -0.0805724  -0.0596779
    2  -0.0084411  -0.0837298  -0.2291362   0.3244394   0.1368021  -0.0044268
    3  -0.0528101   0.0006401  -0.0874267   0.0766490   0.0725287  -0.0012853
            7           8           9          10          11          12
    1   0.0230552  -0.0024002  -0.0009773  -0.0021421  -0.0035573  -0.0014521
    2  -0.0110360  -0.0052870  -0.0021347  -0.0266028  -0.0811454   0.0156598
    3   0.0188792   0.0064506   0.0032908  -0.0071733  -0.0277468  -0.0002963
           13          14
    1   0.0159003   0.0041305
    2  -0.0119320  -0.0130293
    3   0.0060844  -0.0077843
 Max gradient component =       3.244E-01
 RMS gradient           =       7.783E-02
 Gradient time:  CPU 6.92 s  wall 0.87 s
 Geometry Optimization Parameters
   NAtoms,    NIC,     NZ,  NCons,   NDum,   NFix, NCnnct, MaxDiis
       14     123      14       0       0       0       0       0


** GEOMETRY OPTIMIZATION IN DELOCALIZED INTERNAL COORDINATES **
   Searching for a Minimum

   Optimization Cycle:   1

                       Coordinates (Angstroms)
     ATOM                X               Y               Z
      1  C         0.0000000000    0.0000000000    0.0000000000
      2  C         0.0000000000    0.0000000000    1.4200000000
      3  C         1.2167656923    0.0000000000    2.1225000000
      4  O         1.6516638930   -1.0895444449    1.8343672915
      5  C         1.6811703231   -1.0705200277    0.5248378179
      6  C         0.6550832136   -1.6961358311   -0.2126241203
      7  H         0.8555252683    0.4939377439   -0.4606539053
      8  H        -0.9878754879    0.0000000000   -0.4606539053
      9  H        -0.9439676901    0.0000000000    1.9650000000
     10  H         1.1217659327    0.0000000000    3.2083522209
     11  H         2.0434663108    0.4939377439    1.6119203367
     12  H         0.7606046607   -1.6308979170   -1.2955411248
     13  H         0.1954607172   -2.5556596819    0.2752958635
     14  H         2.4989377511   -0.5710584758    0.0053240145
   Point Group: c1    Number of degrees of freedom:    36


   Energy is   -270.247535527


 Attempting to Generate Delocalized Internal Coordinates

 36 Hessian modes will be used to form the next step
  Hessian Eigenvalues:
     0.013214    0.016141    0.020892    0.022304    0.029717    0.037969
     0.041480    0.043211    0.047514    0.059860    0.066866    0.073414
     0.075222    0.084300    0.088519    0.098589    0.106106    0.117438
     0.126026    0.129194    0.160000    0.167669    0.192044    0.348126
     0.348126    0.348126    0.348126    0.348126    0.348126    0.348126
     0.348126    0.360714    0.395596    0.439958    0.474563    0.724810

 Minimum Search - Taking Simple RFO Step
 Searching for Lamda that Minimizes Along All modes
 Value Taken    Lamda =  -0.21291216
 Calculated Step too Large.  Step scaled by  0.463318
 Step Taken.  Stepsize is  0.300000

                             Maximum     Tolerance    Cnvgd?
         Gradient           0.168222      0.000300      NO
         Displacement       0.106179      0.001200      NO
         Energy change     *********      0.000001      NO


 New Cartesian Coordinates Obtained by Inverse Iteration

 Displacement from previous Coordinates is:  0.338195
 ----------------------------------------------------------------
             Standard Nuclear Orientation (Angstroms)
    I     Atom           X                Y                Z
 ----------------------------------------------------------------
    1      C      -0.0311238703     0.0218350279     0.0087358264
    2      C      -0.0353186961     0.0278743041     1.4271644866
    3      C       1.2224581687     0.0045639972     2.1267161916
    4      O       1.6778906498    -1.1490510898     1.8161432150
    5      C       1.7250027326    -1.1198459427     0.5036645998
    6      C       0.6811975396    -1.7105441704    -0.2223141087
    7      H       0.8056806875     0.5295906897    -0.4657982154
    8      H      -1.0199568967     0.0182988241    -0.4504133942
    9      H      -0.9764638161     0.0246410780     1.9748512904
   10      H       1.1086480091     0.0173324928     3.2137418220
   11      H       2.0541952245     0.5433908371     1.6457500793
   12      H       0.7816559709    -1.6564365938    -1.3058438424
   13      H       0.2036290748    -2.5547129805     0.2698711492
   14      H       2.5511058064    -0.6228773644    -0.0041446104
 ----------------------------------------------------------------
 Nuclear Repulsion Energy =   251.0872754150 hartrees
 There are       23 alpha and       23 beta electrons
 Applying Cartesian multipole field
    Component          Value
    ---------          -----
     (2,0,0)        1.00000E-11
     (0,2,0)        2.00000E-11
     (0,0,2)       -3.00000E-11
 Nucleus-field energy     =    -0.0000000036 hartrees
 Requested basis set is 6-31G(d,p)
 There are 48 shells and 130 basis functions
 A cutoff of  1.0D-11 yielded   1134 shell pairs
 There are      8536 function pairs
 Smallest overlap matrix eigenvalue = 2.69E-03
 Guess MOs from SCF MO coefficient file

 -----------------------------------------------------------------------
  General SCF calculation program by
  Eric Jon Sundstrom, Paul Horn, Yuezhi Mao, Dmitri Zuev, Alec White,
  David Stuck, Shaama M.S., Shane Yost, Joonho Lee, David Small,
  Daniel Levine, Susi Lehtola, Hugh Burton, Evgeny Epifanovsky
 -----------------------------------------------------------------------
 Exchange:     0.2000 Hartree-Fock + 0.0800 Slater + 0.7200 B88
 Correlation:  0.1900 VWN1RPA + 0.8100 LYP
 Using SG-1 standard quadrature grid
 using 8 threads for integral computing
 -------------------------------------------------------
 OpenMP Integral computing Module                
 Release: version 1.0, May 2013, Q-Chem Inc. Pittsburgh 
 -------------------------------------------------------
 -------------------------------------------------------
 OpenMP BLAS3 based DFT computing Module                
 Release: version 1.0, May 2013, Q-Chem Inc. Pittsburgh 
 -------------------------------------------------------
 A restricted SCF calculation will be
 performed using DIIS
 SCF converges when DIIS error is below 1.0e-08
 ---------------------------------------
  Cycle       Energy         DIIS error
 ---------------------------------------
    1    -270.3231419538      1.34e-03  
    2    -270.3288471395      4.76e-04  
    3    -270.3286869558      5.34e-04  
    4    -270.3291374278      2.82e-04  
    5    -270.3293191413      5.78e-05  
    6    -270.3293258691      2.10e-05  
    7    -270.3293268115      6.58e-06  
    8    -270.3293269058      2.13e-06  
    9    -270.3293269139      5.89e-07  
   10    -270.3293269146      2.14e-07  
   11    -270.3293269147      7.89e-08  
   12    -270.3293269147      2.06e-08  
   13    -270.3293269147      5.64e-09  Convergence criterion met
 ---------------------------------------
 SCF time:   CPU 19.88s  wall 3.00s 
 SCF   energy in the final basis set =     -270.3293269147
 Total energy in the final basis set =     -270.3293269147
 
 --------------------------------------------------------------
 
                    Orbital Energies (a.u.)
 --------------------------------------------------------------
 
 Alpha MOs
 -- Occupied --
-19.172 -10.231 -10.214 -10.205 -10.199 -10.138  -1.139  -0.805
 -0.762  -0.653  -0.607  -0.587  -0.510  -0.497  -0.465  -0.440
 -0.420  -0.397  -0.360  -0.343  -0.309  -0.263  -0.145
 -- Virtual --
 -0.033   0.066   0.105   0.123   0.124   0.150   0.165   0.175
  0.191   0.214   0.254   0.294   0.300   0.317   0.345   0.496
  0.514   0.534   0.558   0.568   0.590   0.607   0.643   0.664
  0.683   0.737   0.755   0.775   0.808   0.811   0.821   0.848
  0.859   0.885   0.911   0.926   0.943   0.985   1.028   1.121
  1.154   1.173   1.217   1.246   1.319   1.366   1.415   1.427
  1.540   1.575   1.622   1.703   1.727   1.773   1.815   1.869
  1.888   1.953   1.966   1.985   2.010   2.050   2.065   2.105
  2.130   2.173   2.183   2.185   2.246   2.312   2.326   2.361
  2.385   2.424   2.464   2.487   2.510   2.531   2.556   2.562
  2.602   2.650   2.684   2.699   2.736   2.762   2.798   2.855
  2.891   2.940   2.986   3.029   3.095   3.279   3.292   3.377
  3.392   3.402   3.472   3.585   3.653   4.221   4.323   4.413
  4.563   4.670   4.700
 --------------------------------------------------------------
 
          Ground-State Mulliken Net Atomic Charges

     Atom                 Charge (a.u.)
  ----------------------------------------
      1 C                    -0.243864
      2 C                    -0.144040
      3 C                     0.018447
      4 O                    -0.342041
      5 C                     0.106934
      6 C                    -0.192668
      7 H                     0.118162
      8 H                     0.114802
      9 H                     0.068344
     10 H                     0.088687
     11 H                     0.051023
     12 H                     0.117894
     13 H                     0.138987
     14 H                     0.099334
  ----------------------------------------
  Sum of atomic charges =    -0.000000

 -----------------------------------------------------------------
                    Cartesian Multipole Moments
 -----------------------------------------------------------------
    Charge (ESU x 10^10)
                -0.0000
    Dipole Moment (Debye)
         X      -0.0522      Y      -0.1759      Z      -1.4568
       Tot       1.4683
    Quadrupole Moments (Debye-Ang)
        XX     -36.6480     XY       2.0757     YY     -38.6977
        XZ      -1.7502     YZ       1.2607     ZZ     -37.0595
    Octopole Moments (Debye-Ang^2)
       XXX     -94.1737    XXY      27.3121    XYY     -36.3443
       YYY      66.0313    XXZ     -37.0726    XYZ       3.4307
       YYZ     -37.5154    XZZ     -33.3100    YZZ      24.5955
       ZZZ     -94.9608
    Hexadecapole Moments (Debye-Ang^3)
      XXXX    -341.7340   XXXY      89.9233   XXYY    -112.8223
      XYYY      91.3767   YYYY    -244.5574   XXXZ    -116.2198
      XXYZ      15.1803   XYYZ     -42.6289   YYYZ      28.4714
      XXZZ    -136.6524   XYZZ      32.5683   YYZZ    -124.6466
      XZZZ    -108.5057   YZZZ      33.5295   ZZZZ    -407.4116
 -----------------------------------------------------------------
 Calculating analytic gradient of the SCF energy
 Gradient of SCF Energy
            1           2           3           4           5           6
    1   0.0278611   0.0714764   0.0370984  -0.0571729  -0.0543647  -0.0578351
    2  -0.0125225  -0.0662802  -0.1355541   0.1936183   0.1154067  -0.0036519
    3  -0.0536489   0.0058421  -0.0485264   0.0444126   0.0566345   0.0006087
            7           8           9          10          11          12
    1   0.0173265  -0.0034191  -0.0024930  -0.0058138   0.0068284   0.0006182
    2  -0.0059778  -0.0036551   0.0020665  -0.0184179  -0.0541533   0.0132779
    3   0.0149667   0.0072213   0.0019101  -0.0024901  -0.0262716  -0.0002673
           13          14
    1   0.0156676   0.0042219
    2  -0.0105278  -0.0136288
    3   0.0051747  -0.0055666
 Max gradient component =       1.936E-01
 RMS gradient           =       5.036E-02
 Gradient time:  CPU 6.81 s  wall 0.85 s
 Geometry Optimization Parameters
   NAtoms,    NIC,     NZ,  NCons,   NDum,   NFix, NCnnct, MaxDiis
       14     123      14       0       0       0       0       0

 Cartesian Hessian Update
 Hessian Updated using BFGS Update


** GEOMETRY OPTIMIZATION IN DELOCALIZED INTERNAL COORDINATES **
   Searching for a Minimum

   Optimization Cycle:   2

                       Coordinates (Angstroms)
     ATOM                X               Y               Z
      1  C        -0.0311238703    0.0218350279    0.0087358264
      2  C        -0.0353186961    0.0278743041    1.4271644866
      3  C         1.2224581687    0.0045639972    2.1267161916
      4  O         1.6778906498   -1.1490510898    1.8161432150
      5  C         1.7250027326   -1.1198459427    0.5036645998
      6  C         0.6811975396   -1.7105441704   -0.2223141087
      7  H         0.8056806875    0.5295906897   -0.4657982154
      8  H        -1.0199568967    0.0182988241   -0.4504133942
      9  H        -0.9764638161    0.0246410780    1.9748512904
     10  H         1.1086480091    0.0173324928    3.2137418220
     11  H         2.0541952245    0.5433908371    1.6457500793
     12  H         0.7816559709   -1.6564365938   -1.3058438424
     13  H         0.2036290748   -2.5547129805    0.2698711492
     14  H         2.5511058064   -0.6228773644   -0.0041446104
   Point Group: c1    Number of degrees of freedom:    36


   Energy is   -270.329326915

 Hessian Updated using BFGS Update

 30 Hessian modes will be used to form the next step
  Hessian Eigenvalues:
     0.013340    0.016192    0.020885    0.022287    0.029788    0.038030
     0.041303    0.044676    0.048628    0.059875    0.066952    0.073456
     0.075341    0.084169    0.088557    0.099925    0.109697    0.120759
     0.127260    0.128118    0.160113    0.171524    0.191952    0.347706
     0.349543    0.370780    0.389796    0.451200    0.479568    0.705946

 Minimum Search - Taking Simple RFO Step
 Searching for Lamda that Minimizes Along All modes
 Value Taken    Lamda =  -0.11432488
 Calculated Step too Large.  Step scaled by  0.526196
 Step Taken.  Stepsize is  0.300000

                             Maximum     Tolerance    Cnvgd?
         Gradient           0.107086      0.000300      NO
         Displacement       0.116030      0.001200      NO
         Energy change     -0.081791      0.000001      NO


 New Cartesian Coordinates Obtained by Inverse Iteration

 Displacement from previous Coordinates is:  0.312336
 ----------------------------------------------------------------
             Standard Nuclear Orientation (Angstroms)
    I     Atom           X                Y                Z
 ----------------------------------------------------------------
    1      C      -0.0602042965     0.0504387790     0.0255615467
    2      C      -0.0580902666     0.0564367601     1.4305112069
    3      C       1.2206151538     0.0107982941     2.1264800891
    4      O       1.6994842531    -1.1907456093     1.8006143546
    5      C       1.7656405081    -1.1737868627     0.4824794373
    6      C       0.7139295237    -1.7293520196    -0.2312447359
    7      H       0.7599902939     0.5637599656    -0.4653383850
    8      H      -1.0455322961     0.0400275783    -0.4398839491
    9      H      -0.9903130681     0.0396921655     1.9870039900
   10      H       1.0973047375     0.0286287337     3.2111403702
   11      H       2.0422356704     0.5888285542     1.6791721266
   12      H       0.8054603416    -1.6896244399    -1.3154073564
   13      H       0.2024404320    -2.5491061550     0.2636208781
   14      H       2.5956395979    -0.6719366346    -0.0165850837
 ----------------------------------------------------------------
 Nuclear Repulsion Energy =   247.5539991390 hartrees
 There are       23 alpha and       23 beta electrons
 Applying Cartesian multipole field
    Component          Value
    ---------          -----
     (2,0,0)        1.00000E-11
     (0,2,0)        2.00000E-11
     (0,0,2)       -3.00000E-11
 Nucleus-field energy     =    -0.0000000033 hartrees
 Requested basis set is 6-31G(d,p)
 There are 48 shells and 130 basis functions
 A cutoff of  1.0D-11 yielded   1130 shell pairs
 There are      8520 function pairs
 Smallest overlap matrix eigenvalue = 2.88E-03
 Guess MOs from SCF MO coefficient file

 -----------------------------------------------------------------------
  General SCF calculation program by
  Eric Jon Sundstrom, Paul Horn, Yuezhi Mao, Dmitri Zuev, Alec White,
  David Stuck, Shaama M.S., Shane Yost, Joonho Lee, David Small,
  Daniel Levine, Susi Lehtola, Hugh Burton, Evgeny Epifanovsky
 -----------------------------------------------------------------------
 Exchange:     0.2000 Hartree-Fock + 0.0800 Slater + 0.7200 B88
 Correlation:  0.1900 VWN1RPA + 0.8100 LYP
 Using SG-1 standard quadrature grid
 using 8 threads for integral computing
 -------------------------------------------------------
 OpenMP Integral computing Module                
 Release: version 1.0, May 2013, Q-Chem Inc. Pittsburgh 
 -------------------------------------------------------
 -------------------------------------------------------
 OpenMP BLAS3 based DFT computing Module                
 Release: version 1.0, May 2013, Q-Chem Inc. Pittsburgh 
 -------------------------------------------------------
 A restricted SCF calculation will be
 performed using DIIS
 SCF converges when DIIS error is below 1.0e-08
 ---------------------------------------
  Cycle       Energy         DIIS error
 ---------------------------------------
    1    -270.3764193568      1.07e-03  
    2    -270.3807626650      2.97e-04  
    3    -270.3807800717      3.01e-04  
    4    -270.3809364760      1.33e-04  
    5    -270.3809741738      4.08e-05  
    6    -270.3809774966      1.56e-05  
    7    -270.3809780216      6.33e-06  
    8    -270.3809781095      9.52e-07  
    9    -270.3809781111      5.45e-07  
   10    -270.3809781117      1.32e-07  
   11    -270.3809781117      5.33e-08  
   12    -270.3809781117      1.21e-08  
   13    -270.3809781117      2.56e-09  Convergence criterion met
 ---------------------------------------
 SCF time:   CPU 19.25s  wall 2.00s 
 SCF   energy in the final basis set =     -270.3809781117
 Total energy in the final basis set =     -270.3809781117
 
 --------------------------------------------------------------
 
                    Orbital Energies (a.u.)
 --------------------------------------------------------------
 
 Alpha MOs
 -- Occupied --
-19.168 -10.229 -10.218 -10.199 -10.195 -10.146  -1.111  -0.791
 -0.763  -0.654  -0.598  -0.577  -0.503  -0.486  -0.468  -0.436
 -0.415  -0.394  -0.364  -0.345  -0.307  -0.266  -0.158
 -- Virtual --
 -0.028   0.062   0.107   0.121   0.124   0.153   0.166   0.174
  0.191   0.213   0.239   0.298   0.301   0.315   0.341   0.498
  0.513   0.533   0.550   0.567   0.595   0.617   0.631   0.659
  0.676   0.738   0.750   0.773   0.793   0.813   0.826   0.851
  0.855   0.888   0.909   0.923   0.936   0.976   1.018   1.120
  1.155   1.175   1.207   1.242   1.319   1.358   1.402   1.426
  1.525   1.564   1.618   1.688   1.724   1.774   1.810   1.871
  1.884   1.924   1.966   1.978   2.016   2.049   2.058   2.092
  2.118   2.160   2.163   2.171   2.227   2.281   2.323   2.365
  2.368   2.414   2.458   2.479   2.505   2.512   2.549   2.558
  2.586   2.625   2.665   2.678   2.741   2.773   2.789   2.839
  2.887   2.925   2.987   3.017   3.082   3.276   3.287   3.375
  3.381   3.409   3.467   3.599   3.647   4.170   4.308   4.399
  4.557   4.657   4.685
 --------------------------------------------------------------
 
          Ground-State Mulliken Net Atomic Charges

     Atom                 Charge (a.u.)
  ----------------------------------------
      1 C                    -0.243845
      2 C                    -0.121977
      3 C                     0.017197
      4 O                    -0.380645
      5 C                     0.122247
      6 C                    -0.198656
      7 H                     0.116825
      8 H                     0.110217
      9 H                     0.074337
     10 H                     0.096498
     11 H                     0.067345
     12 H                     0.113224
     13 H                     0.135497
     14 H                     0.091738
  ----------------------------------------
  Sum of atomic charges =    -0.000000

 -----------------------------------------------------------------
                    Cartesian Multipole Moments
 -----------------------------------------------------------------
    Charge (ESU x 10^10)
                -0.0000
    Dipole Moment (Debye)
         X      -0.1247      Y       0.1095      Z      -1.2941
       Tot       1.3047
    Quadrupole Moments (Debye-Ang)
        XX     -36.5887     XY       2.4774     YY     -38.9673
        XZ      -1.9253     YZ       1.6622     ZZ     -36.7739
    Octopole Moments (Debye-Ang^2)
       XXX     -94.6157    XXY      28.2837    XYY     -36.8087
       YYY      67.8420    XXZ     -36.9810    XYZ       4.2545
       YYZ     -37.6950    XZZ     -33.9345    YZZ      25.8646
       ZZZ     -94.0081
    Hexadecapole Moments (Debye-Ang^3)
      XXXX    -349.4595   XXXY      96.3710   XXYY    -116.1636
      XYYY      98.0455   YYYY    -257.5975   XXXZ    -115.7528
      XXYZ      16.7404   XYYZ     -42.8171   YYYZ      28.8191
      XXZZ    -138.4180   XYZZ      36.0621   YYZZ    -126.5907
      XZZZ    -108.8047   YZZZ      35.4065   ZZZZ    -404.5119
 -----------------------------------------------------------------
 Calculating analytic gradient of the SCF energy
 Gradient of SCF Energy
            1           2           3           4           5           6
    1   0.0279021   0.0408169   0.0290742  -0.0376319  -0.0364764  -0.0524030
    2  -0.0182222  -0.0530708  -0.0842387   0.1218020   0.0917037   0.0028026
    3  -0.0474500   0.0079493  -0.0282762   0.0264681   0.0402965   0.0043119
            7           8           9          10          11          12
    1   0.0114176  -0.0034019  -0.0012891  -0.0072685   0.0082843   0.0019789
    2  -0.0020579  -0.0020119   0.0057021  -0.0128293  -0.0383219   0.0106494
    3   0.0122599   0.0069293   0.0005135  -0.0018714  -0.0207807  -0.0000123
           13          14
    1   0.0148532   0.0041435
    2  -0.0094861  -0.0124208
    3   0.0041325  -0.0044705
 Max gradient component =       1.218E-01
 RMS gradient           =       3.483E-02
 Gradient time:  CPU 6.74 s  wall 0.84 s
 Geometry Optimization Parameters
   NAtoms,    NIC,     NZ,  NCons,   NDum,   NFix, NCnnct, MaxDiis
       14     123      14       0       0       0       0       0

 Cartesian Hessian Update
 Hessian Updated using BFGS Update


** GEOMETRY OPTIMIZATION IN DELOCALIZED INTERNAL COORDINATES **
   Searching for a Minimum

   Optimization Cycle:   3

                       Coordinates (Angstroms)
     ATOM                X               Y               Z
      1  C        -0.0602042965    0.0504387790    0.0255615467
      2  C        -0.0580902666    0.0564367601    1.4305112069
      3  C         1.2206151538    0.0107982941    2.1264800891
      4  O         1.6994842531   -1.1907456093    1.8006143546
      5  C         1.7656405081   -1.1737868627    0.4824794373
      6  C         0.7139295237   -1.7293520196   -0.2312447359
      7  H         0.7599902939    0.5637599656   -0.4653383850
      8  H        -1.0455322961    0.0400275783   -0.4398839491
      9  H        -0.9903130681    0.0396921655    1.9870039900
     10  H         1.0973047375    0.0286287337    3.2111403702
     11  H         2.0422356704    0.5888285542    1.6791721266
     12  H         0.8054603416   -1.6896244399   -1.3154073564
     13  H         0.2024404320   -2.5491061550    0.2636208781
     14  H         2.5956395979   -0.6719366346   -0.0165850837
   Point Group: c1    Number of degrees of freedom:    36


   Energy is   -270.380978112

 Hessian Updated using BFGS Update

 31 Hessian modes will be used to form the next step
  Hessian Eigenvalues:
     0.013355    0.016233    0.020780    0.022339    0.029775    0.038036
     0.040836    0.045134    0.048938    0.059892    0.066354    0.073423
     0.075333    0.083534    0.088533    0.099887    0.110126    0.112188
     0.123271    0.128265    0.160109    0.172595    0.192142    0.347977
     0.348326    0.349429    0.368869    0.382862    0.449484    0.477640
     0.625220

 Minimum Search - Taking Simple RFO Step
 Searching for Lamda that Minimizes Along All modes
 Value Taken    Lamda =  -0.08274097
 Calculated Step too Large.  Step scaled by  0.496483
 Step Taken.  Stepsize is  0.300000

                             Maximum     Tolerance    Cnvgd?
         Gradient           0.071476      0.000300      NO
         Displacement       0.134034      0.001200      NO
         Energy change     -0.051651      0.000001      NO


 New Cartesian Coordinates Obtained by Inverse Iteration

 Displacement from previous Coordinates is:  0.295895
 ----------------------------------------------------------------
             Standard Nuclear Orientation (Angstroms)
    I     Atom           X                Y                Z
 ----------------------------------------------------------------
    1      C      -0.0885369670     0.0858164188     0.0443233414
    2      C      -0.0759198059     0.0843015485     1.4324445964
    3      C       1.2164359553     0.0187115126     2.1255700018
    4      O       1.7208692743    -1.2239303507     1.7885247194
    5      C       1.8013108058    -1.2258304369     0.4649867256
    6      C       0.7483925879    -1.7533964636    -0.2405890708
    7      H       0.7215714191     0.5953785169    -0.4640648267
    8      H      -1.0681346302     0.0654005958    -0.4316790465
    9      H      -0.9994745830     0.0458332407     2.0001737623
   10      H       1.0912213672     0.0359650582     3.2091282475
   11      H       2.0227353907     0.6345042252     1.7071139473
   12      H       0.8292502171    -1.7273886502    -1.3255557553
   13      H       0.1961130560    -2.5443473080     0.2549130060
   14      H       2.6327664975    -0.7169587977    -0.0271651591
 ----------------------------------------------------------------
 Nuclear Repulsion Energy =   244.4555385985 hartrees
 There are       23 alpha and       23 beta electrons
 Applying Cartesian multipole field
    Component          Value
    ---------          -----
     (2,0,0)        1.00000E-11
     (0,2,0)        2.00000E-11
     (0,0,2)       -3.00000E-11
 Nucleus-field energy     =    -0.0000000031 hartrees
 Requested basis set is 6-31G(d,p)
 There are 48 shells and 130 basis functions
 A cutoff of  1.0D-11 yielded   1127 shell pairs
 There are      8505 function pairs
 Smallest overlap matrix eigenvalue = 3.04E-03
 Guess MOs from SCF MO coefficient file

 -----------------------------------------------------------------------
  General SCF calculation program by
  Eric Jon Sundstrom, Paul Horn, Yuezhi Mao, Dmitri Zuev, Alec White,
  David Stuck, Shaama M.S., Shane Yost, Joonho Lee, David Small,
  Daniel Levine, Susi Lehtola, Hugh Burton, Evgeny Epifanovsky
 -----------------------------------------------------------------------
 Exchange:     0.2000 Hartree-Fock + 0.0800 Slater + 0.7200 B88
 Correlation:  0.1900 VWN1RPA + 0.8100 LYP
 Using SG-1 standard quadrature grid
 using 8 threads for integral computing
 -------------------------------------------------------
 OpenMP Integral computing Module                
 Release: version 1.0, May 2013, Q-Chem Inc. Pittsburgh 
 -------------------------------------------------------
 -------------------------------------------------------
 OpenMP BLAS3 based DFT computing Module                
 Release: version 1.0, May 2013, Q-Chem Inc. Pittsburgh 
 -------------------------------------------------------
 A restricted SCF calculation will be
 performed using DIIS
 SCF converges when DIIS error is below 1.0e-08
 ---------------------------------------
  Cycle       Energy         DIIS error
 ---------------------------------------
    1    -270.4127581367      9.36e-04  
    2    -270.4163367924      2.33e-04  
    3    -270.4163806639      2.21e-04  
    4    -270.4164708441      7.71e-05  
    5    -270.4164826742      2.88e-05  
    6    -270.4164844267      8.71e-06  
    7    -270.4164845528      5.74e-06  
    8    -270.4164846235      5.92e-07  
    9    -270.4164846244      2.95e-07  
   10    -270.4164846246      6.44e-08  
   11    -270.4164846246      1.09e-08  
   12    -270.4164846246      3.64e-09  Convergence criterion met
 ---------------------------------------
 SCF time:   CPU 17.65s  wall 2.00s 
 SCF   energy in the final basis set =     -270.4164846246
 Total energy in the final basis set =     -270.4164846246
 
 --------------------------------------------------------------
 
                    Orbital Energies (a.u.)
 --------------------------------------------------------------
 
 Alpha MOs
 -- Occupied --
-19.165 -10.227 -10.223 -10.192 -10.192 -10.154  -1.088  -0.782
 -0.765  -0.657  -0.591  -0.571  -0.498  -0.479  -0.468  -0.434
 -0.411  -0.392  -0.366  -0.346  -0.303  -0.267  -0.171
 -- Virtual --
 -0.022   0.055   0.109   0.119   0.126   0.155   0.166   0.173
  0.191   0.211   0.223   0.297   0.302   0.319   0.341   0.498
  0.511   0.531   0.545   0.567   0.600   0.614   0.626   0.656
  0.674   0.735   0.748   0.762   0.788   0.815   0.830   0.849
  0.853   0.886   0.905   0.922   0.934   0.970   1.015   1.121
  1.144   1.185   1.201   1.246   1.319   1.352   1.385   1.424
  1.514   1.554   1.611   1.669   1.723   1.768   1.810   1.865
  1.868   1.915   1.960   1.975   2.014   2.028   2.060   2.080
  2.104   2.139   2.150   2.165   2.216   2.257   2.324   2.353
  2.374   2.409   2.445   2.477   2.493   2.509   2.547   2.558
  2.573   2.612   2.648   2.664   2.743   2.769   2.798   2.830
  2.887   2.914   2.990   3.009   3.076   3.269   3.282   3.360
  3.384   3.422   3.462   3.611   3.650   4.122   4.304   4.380
  4.551   4.647   4.674
 --------------------------------------------------------------
 
          Ground-State Mulliken Net Atomic Charges

     Atom                 Charge (a.u.)
  ----------------------------------------
      1 C                    -0.240856
      2 C                    -0.102447
      3 C                     0.013785
      4 O                    -0.409847
      5 C                     0.136896
      6 C                    -0.205318
      7 H                     0.115147
      8 H                     0.106561
      9 H                     0.078862
     10 H                     0.102523
     11 H                     0.079672
     12 H                     0.108329
     13 H                     0.131670
     14 H                     0.085023
  ----------------------------------------
  Sum of atomic charges =     0.000000

 -----------------------------------------------------------------
                    Cartesian Multipole Moments
 -----------------------------------------------------------------
    Charge (ESU x 10^10)
                -0.0000
    Dipole Moment (Debye)
         X      -0.2183      Y       0.3707      Z      -1.1516
       Tot       1.2294
    Quadrupole Moments (Debye-Ang)
        XX     -36.6297     XY       2.8519     YY     -39.2059
        XZ      -2.0734     YZ       2.0093     ZZ     -36.5085
    Octopole Moments (Debye-Ang^2)
       XXX     -95.3243    XXY      29.0914    XYY     -37.2663
       YYY      69.4458    XXZ     -37.0058    XYZ       4.9881
       YYZ     -37.8424    XZZ     -34.5130    YZZ      26.9296
       ZZZ     -93.1874
    Hexadecapole Moments (Debye-Ang^3)
      XXXX    -357.6381   XXXY     102.4716   XXYY    -119.4418
      XYYY     104.5106   YYYY    -271.0233   XXXZ    -115.5142
      XXYZ      17.9575   XYYZ     -42.9216   YYYZ      28.8522
      XXZZ    -140.1924   XYZZ      39.3457   YYZZ    -128.5288
      XZZZ    -108.8899   YZZZ      36.6582   ZZZZ    -402.1009
 -----------------------------------------------------------------
 Calculating analytic gradient of the SCF energy
 Gradient of SCF Energy
            1           2           3           4           5           6
    1   0.0263033   0.0220850   0.0229708  -0.0251640  -0.0234770  -0.0455776
    2  -0.0229504  -0.0416100  -0.0510080   0.0741869   0.0690453   0.0103462
    3  -0.0377436   0.0053387  -0.0153003   0.0138480   0.0276348   0.0078750
            7           8           9          10          11          12
    1   0.0069181  -0.0029954  -0.0006391  -0.0076144   0.0075695   0.0025257
    2   0.0012048  -0.0008198   0.0080695  -0.0087387  -0.0265531   0.0082337
    3   0.0099109   0.0059918   0.0000713  -0.0014676  -0.0157239   0.0000530
           13          14
    1   0.0134863   0.0036086
    2  -0.0090437  -0.0103626
    3   0.0031535  -0.0036415
 Max gradient component =       7.419E-02
 RMS gradient           =       2.430E-02
 Gradient time:  CPU 6.61 s  wall 0.83 s
 Geometry Optimization Parameters
   NAtoms,    NIC,     NZ,  NCons,   NDum,   NFix, NCnnct, MaxDiis
       14     123      14       0       0       0       0       0

 Cartesian Hessian Update
 Hessian Updated using BFGS Update


** GEOMETRY OPTIMIZATION IN DELOCALIZED INTERNAL COORDINATES **
   Searching for a Minimum

   Optimization Cycle:   4

                       Coordinates (Angstroms)
     ATOM                X               Y               Z
      1  C        -0.0885369670    0.0858164188    0.0443233414
      2  C        -0.0759198059    0.0843015485    1.4324445964
      3  C         1.2164359553    0.0187115126    2.1255700018
      4  O         1.7208692743   -1.2239303507    1.7885247194
      5  C         1.8013108058   -1.2258304369    0.4649867256
      6  C         0.7483925879   -1.7533964636   -0.2405890708
      7  H         0.7215714191    0.5953785169   -0.4640648267
      8  H        -1.0681346302    0.0654005958   -0.4316790465
      9  H        -0.9994745830    0.0458332407    2.0001737623
     10  H         1.0912213672    0.0359650582    3.2091282475
     11  H         2.0227353907    0.6345042252    1.7071139473
     12  H         0.8292502171   -1.7273886502   -1.3255557553
     13  H         0.1961130560   -2.5443473080    0.2549130060
     14  H         2.6327664975   -0.7169587977   -0.0271651591
   Point Group: c1    Number of degrees of freedom:    36


   Energy is   -270.416484625

 Hessian Updated using BFGS Update

 32 Hessian modes will be used to form the next step
  Hessian Eigenvalues:
     0.013359    0.016252    0.020711    0.022498    0.029769    0.038002
     0.040448    0.045230    0.049437    0.059896    0.064676    0.073345
     0.075659    0.081912    0.088516    0.097507    0.101344    0.110505
     0.124354    0.129661    0.160115    0.173235    0.192651    0.347996
     0.348128    0.348455    0.349913    0.368606    0.384887    0.447036
     0.474631    0.605006

 Minimum Search - Taking Simple RFO Step
 Searching for Lamda that Minimizes Along All modes
 Value Taken    Lamda =  -0.05870128
 Calculated Step too Large.  Step scaled by  0.483279
 Step Taken.  Stepsize is  0.300000

                             Maximum     Tolerance    Cnvgd?
         Gradient           0.046879      0.000300      NO
         Displacement       0.142566      0.001200      NO
         Energy change     -0.035507      0.000001      NO


 New Cartesian Coordinates Obtained by Inverse Iteration

 Displacement from previous Coordinates is:  0.284329
 ----------------------------------------------------------------
             Standard Nuclear Orientation (Angstroms)
    I     Atom           X                Y                Z
 ----------------------------------------------------------------
    1      C      -0.1165136305     0.1259813733     0.0625660267
    2      C      -0.0909114935     0.1116940134     1.4361573795
    3      C       1.2111581797     0.0278257679     2.1251340377
    4      O       1.7410427334    -1.2489034285     1.7801500806
    5      C       1.8321330765    -1.2735340334     0.4511584608
    6      C       0.7831555968    -1.7827302162    -0.2521281726
    7      H       0.6887425817     0.6225029379    -0.4648303106
    8      H      -1.0896539097     0.0945483656    -0.4251464010
    9      H      -1.0059239957     0.0458341039     2.0152718098
   10      H       1.0905036837     0.0403652969     3.2086073397
   11      H       2.0002026245     0.6788345646     1.7316992834
   12      H       0.8541206523    -1.7704006197    -1.3377271792
   13      H       0.1865646641    -2.5405611998     0.2423212977
   14      H       2.6639798216    -0.7573978164    -0.0351091633
 ----------------------------------------------------------------
 Nuclear Repulsion Energy =   241.5973739449 hartrees
 There are       23 alpha and       23 beta electrons
 Applying Cartesian multipole field
    Component          Value
    ---------          -----
     (2,0,0)        1.00000E-11
     (0,2,0)        2.00000E-11
     (0,0,2)       -3.00000E-11
 Nucleus-field energy     =    -0.0000000029 hartrees
 Requested basis set is 6-31G(d,p)
 There are 48 shells and 130 basis functions
 A cutoff of  1.0D-11 yielded   1126 shell pairs
 There are      8504 function pairs
 Smallest overlap matrix eigenvalue = 3.22E-03
 Guess MOs from SCF MO coefficient file

 -----------------------------------------------------------------------
  General SCF calculation program by
  Eric Jon Sundstrom, Paul Horn, Yuezhi Mao, Dmitri Zuev, Alec White,
  David Stuck, Shaama M.S., Shane Yost, Joonho Lee, David Small,
  Daniel Levine, Susi Lehtola, Hugh Burton, Evgeny Epifanovsky
 -----------------------------------------------------------------------
 Exchange:     0.2000 Hartree-Fock + 0.0800 Slater + 0.7200 B88
 Correlation:  0.1900 VWN1RPA + 0.8100 LYP
 Using SG-1 standard quadrature grid
 using 8 threads for integral computing
 -------------------------------------------------------
 OpenMP Integral computing Module                
 Release: version 1.0, May 2013, Q-Chem Inc. Pittsburgh 
 -------------------------------------------------------
 -------------------------------------------------------
 OpenMP BLAS3 based DFT computing Module                
 Release: version 1.0, May 2013, Q-Chem Inc. Pittsburgh 
 -------------------------------------------------------
 A restricted SCF calculation will be
 performed using DIIS
 SCF converges when DIIS error is below 1.0e-08
 ---------------------------------------
  Cycle       Energy         DIIS error
 ---------------------------------------
    1    -270.4381675253      8.17e-04  
    2    -270.4410200959      1.86e-04  
    3    -270.4410624246      1.70e-04  
    4    -270.4411189398      4.16e-05  
    5    -270.4411218943      2.18e-05  
    6    -270.4411228907      6.06e-06  
    7    -270.4411229719      1.73e-06  
    8    -270.4411229765      8.22e-07  
    9    -270.4411229778      2.40e-07  
   10    -270.4411229779      6.44e-08  
   11    -270.4411229779      2.45e-08  
   12    -270.4411229779      5.39e-09  Convergence criterion met
 ---------------------------------------
 SCF time:   CPU 17.82s  wall 2.00s 
 SCF   energy in the final basis set =     -270.4411229779
 Total energy in the final basis set =     -270.4411229779
 
 --------------------------------------------------------------
 
                    Orbital Energies (a.u.)
 --------------------------------------------------------------
 
 Alpha MOs
 -- Occupied --
-19.162 -10.226 -10.226 -10.190 -10.187 -10.162  -1.070  -0.777
 -0.764  -0.661  -0.585  -0.566  -0.494  -0.475  -0.466  -0.433
 -0.409  -0.391  -0.368  -0.346  -0.297  -0.267  -0.184
 -- Virtual --
 -0.017   0.047   0.110   0.116   0.128   0.156   0.166   0.172
  0.192   0.206   0.211   0.296   0.302   0.324   0.342   0.496
  0.510   0.529   0.544   0.568   0.598   0.605   0.630   0.654
  0.673   0.726   0.742   0.755   0.788   0.817   0.833   0.843
  0.856   0.882   0.900   0.922   0.934   0.967   1.014   1.121
  1.130   1.187   1.205   1.252   1.315   1.349   1.366   1.420
  1.505   1.543   1.599   1.649   1.718   1.760   1.805   1.855
  1.858   1.918   1.955   1.959   2.001   2.016   2.047   2.062
  2.104   2.115   2.138   2.166   2.207   2.244   2.316   2.344
  2.380   2.403   2.429   2.478   2.488   2.508   2.545   2.558
  2.568   2.609   2.635   2.653   2.743   2.759   2.806   2.825
  2.884   2.906   2.993   3.004   3.070   3.261   3.276   3.345
  3.387   3.435   3.459   3.622   3.658   4.081   4.303   4.359
  4.542   4.638   4.665
 --------------------------------------------------------------
 
          Ground-State Mulliken Net Atomic Charges

     Atom                 Charge (a.u.)
  ----------------------------------------
      1 C                    -0.235611
      2 C                    -0.087283
      3 C                     0.009947
      4 O                    -0.431527
      5 C                     0.148677
      6 C                    -0.211088
      7 H                     0.113507
      8 H                     0.103949
      9 H                     0.082352
     10 H                     0.106976
     11 H                     0.088701
     12 H                     0.103949
     13 H                     0.127698
     14 H                     0.079753
  ----------------------------------------
  Sum of atomic charges =    -0.000000

 -----------------------------------------------------------------
                    Cartesian Multipole Moments
 -----------------------------------------------------------------
    Charge (ESU x 10^10)
                 0.0000
    Dipole Moment (Debye)
         X      -0.3198      Y       0.5968      Z      -1.0398
       Tot       1.2408
    Quadrupole Moments (Debye-Ang)
        XX     -36.7293     XY       3.1793     YY     -39.4133
        XZ      -2.2012     YZ       2.3064     ZZ     -36.2744
    Octopole Moments (Debye-Ang^2)
       XXX     -96.1507    XXY      29.7198    XYY     -37.6790
       YYY      70.7921    XXZ     -37.1225    XYZ       5.6214
       YYZ     -38.0005    XZZ     -35.0175    YZZ      27.7750
       ZZZ     -92.5540
    Hexadecapole Moments (Debye-Ang^3)
      XXXX    -365.9033   XXXY     108.1088   XXYY    -122.6331
      XYYY     110.6062   YYYY    -284.5515   XXXZ    -115.4673
      XXYZ      18.7904   XYYZ     -42.9631   YYYZ      28.5331
      XXZZ    -142.0065   XYZZ      42.3222   YYZZ    -130.5318
      XZZZ    -108.8404   YZZZ      37.2445   ZZZZ    -400.7786
 -----------------------------------------------------------------
 Calculating analytic gradient of the SCF energy
 Gradient of SCF Energy
            1           2           3           4           5           6
    1   0.0240585   0.0106648   0.0174048  -0.0163303  -0.0139603  -0.0384977
    2  -0.0257604  -0.0311286  -0.0294618   0.0425793   0.0491689   0.0162144
    3  -0.0282062   0.0023283  -0.0071120   0.0058064   0.0182200   0.0098293
            7           8           9          10          11          12
    1   0.0036125  -0.0023677  -0.0003512  -0.0072069   0.0060279   0.0023010
    2   0.0034990  -0.0001088   0.0091191  -0.0057533  -0.0178315   0.0061408
    3   0.0076867   0.0046043   0.0002816  -0.0011866  -0.0115109  -0.0000222
           13          14
    1   0.0117908   0.0028536
    2  -0.0087137  -0.0079634
    3   0.0022133  -0.0029321
 Max gradient component =       4.917E-02
 RMS gradient           =       1.715E-02
 Gradient time:  CPU 6.62 s  wall 0.83 s
 Geometry Optimization Parameters
   NAtoms,    NIC,     NZ,  NCons,   NDum,   NFix, NCnnct, MaxDiis
       14     123      14       0       0       0       0       0

 Cartesian Hessian Update
 Hessian Updated using BFGS Update


** GEOMETRY OPTIMIZATION IN DELOCALIZED INTERNAL COORDINATES **
   Searching for a Minimum

   Optimization Cycle:   5

                       Coordinates (Angstroms)
     ATOM                X               Y               Z
      1  C        -0.1165136305    0.1259813733    0.0625660267
      2  C        -0.0909114935    0.1116940134    1.4361573795
      3  C         1.2111581797    0.0278257679    2.1251340377
      4  O         1.7410427334   -1.2489034285    1.7801500806
      5  C         1.8321330765   -1.2735340334    0.4511584608
      6  C         0.7831555968   -1.7827302162   -0.2521281726
      7  H         0.6887425817    0.6225029379   -0.4648303106
      8  H        -1.0896539097    0.0945483656   -0.4251464010
      9  H        -1.0059239957    0.0458341039    2.0152718098
     10  H         1.0905036837    0.0403652969    3.2086073397
     11  H         2.0002026245    0.6788345646    1.7316992834
     12  H         0.8541206523   -1.7704006197   -1.3377271792
     13  H         0.1865646641   -2.5405611998    0.2423212977
     14  H         2.6639798216   -0.7573978164   -0.0351091633
   Point Group: c1    Number of degrees of freedom:    36


   Energy is   -270.441122978

 Hessian Updated using BFGS Update

 33 Hessian modes will be used to form the next step
  Hessian Eigenvalues:
     0.013359    0.016256    0.020667    0.022653    0.029767    0.037771
     0.039825    0.044919    0.049917    0.059844    0.061559    0.073189
     0.075804    0.078112    0.088508    0.091132    0.100581    0.110620
     0.124890    0.131035    0.160162    0.173617    0.192997    0.348038
     0.348127    0.348129    0.348458    0.350318    0.370177    0.389878
     0.445933    0.473452    0.615006

 Minimum Search - Taking Simple RFO Step
 Searching for Lamda that Minimizes Along All modes
 Value Taken    Lamda =  -0.04186504
 Calculated Step too Large.  Step scaled by  0.476991
 Step Taken.  Stepsize is  0.300000

                             Maximum     Tolerance    Cnvgd?
         Gradient           0.029694      0.000300      NO
         Displacement       0.142800      0.001200      NO
         Energy change     -0.024638      0.000001      NO


 New Cartesian Coordinates Obtained by Inverse Iteration

 Displacement from previous Coordinates is:  0.278641
 ----------------------------------------------------------------
             Standard Nuclear Orientation (Angstroms)
    I     Atom           X                Y                Z
 ----------------------------------------------------------------
    1      C      -0.1450576758     0.1697709316     0.0794085366
    2      C      -0.1040266914     0.1378017587     1.4413910814
    3      C       1.2057864268     0.0378312737     2.1249062281
    4      O       1.7588659481    -1.2668704128     1.7743176197
    5      C       1.8584471939    -1.3161004193     0.4402062693
    6      C       0.8174738053    -1.8160793505    -0.2653595580
    7      H       0.6594156717     0.6458592217    -0.4671099919
    8      H      -1.1123929749     0.1281993235    -0.4184024968
    9      H      -1.0107795313     0.0402702829     2.0299570614
   10      H       1.0944540679     0.0424633022     3.2090367614
   11      H       1.9778507079     0.7205985520     1.7540964815
   12      H       0.8820288143    -1.8187417649    -1.3511181265
   13      H       0.1753920258    -2.5363631798     0.2274207201
   14      H       2.6911427965    -0.7945804093    -0.0406260971
 ----------------------------------------------------------------
 Nuclear Repulsion Energy =   238.9542947252 hartrees
 There are       23 alpha and       23 beta electrons
 Applying Cartesian multipole field
    Component          Value
    ---------          -----
     (2,0,0)        1.00000E-11
     (0,2,0)        2.00000E-11
     (0,0,2)       -3.00000E-11
 Nucleus-field energy     =    -0.0000000027 hartrees
 Requested basis set is 6-31G(d,p)
 There are 48 shells and 130 basis functions
 A cutoff of  1.0D-11 yielded   1122 shell pairs
 There are      8492 function pairs
 Smallest overlap matrix eigenvalue = 3.41E-03
 Guess MOs from SCF MO coefficient file

 -----------------------------------------------------------------------
  General SCF calculation program by
  Eric Jon Sundstrom, Paul Horn, Yuezhi Mao, Dmitri Zuev, Alec White,
  David Stuck, Shaama M.S., Shane Yost, Joonho Lee, David Small,
  Daniel Levine, Susi Lehtola, Hugh Burton, Evgeny Epifanovsky
 -----------------------------------------------------------------------
 Exchange:     0.2000 Hartree-Fock + 0.0800 Slater + 0.7200 B88
 Correlation:  0.1900 VWN1RPA + 0.8100 LYP
 Using SG-1 standard quadrature grid
 using 8 threads for integral computing
 -------------------------------------------------------
 OpenMP Integral computing Module                
 Release: version 1.0, May 2013, Q-Chem Inc. Pittsburgh 
 -------------------------------------------------------
 -------------------------------------------------------
 OpenMP BLAS3 based DFT computing Module                
 Release: version 1.0, May 2013, Q-Chem Inc. Pittsburgh 
 -------------------------------------------------------
 A restricted SCF calculation will be
 performed using DIIS
 SCF converges when DIIS error is below 1.0e-08
 ---------------------------------------
  Cycle       Energy         DIIS error
 ---------------------------------------
    1    -270.4561176985      7.23e-04  
    2    -270.4584321771      1.52e-04  
    3    -270.4584651076      1.42e-04  
    4    -270.4585054941      2.63e-05  
    5    -270.4585068751      1.07e-05  
    6    -270.4585070544      5.86e-06  
    7    -270.4585071210      1.14e-06  
    8    -270.4585071234      5.65e-07  
    9    -270.4585071240      8.55e-08  
   10    -270.4585071240      4.52e-08  
   11    -270.4585071240      1.25e-08  
   12    -270.4585071240      6.44e-09  Convergence criterion met
 ---------------------------------------
 SCF time:   CPU 17.48s  wall 3.00s 
 SCF   energy in the final basis set =     -270.4585071240
 Total energy in the final basis set =     -270.4585071240
 
 --------------------------------------------------------------
 
                    Orbital Energies (a.u.)
 --------------------------------------------------------------
 
 Alpha MOs
 -- Occupied --
-19.160 -10.230 -10.226 -10.189 -10.183 -10.168  -1.056  -0.778
 -0.759  -0.664  -0.581  -0.563  -0.492  -0.472  -0.464  -0.432
 -0.409  -0.389  -0.368  -0.347  -0.291  -0.267  -0.196
 -- Virtual --
 -0.011   0.039   0.111   0.115   0.130   0.155   0.165   0.171
  0.192   0.196   0.207   0.295   0.301   0.329   0.344   0.494
  0.509   0.527   0.545   0.570   0.585   0.607   0.631   0.653
  0.672   0.705   0.738   0.756   0.788   0.818   0.835   0.839
  0.858   0.878   0.897   0.922   0.934   0.965   1.015   1.108
  1.131   1.183   1.216   1.256   1.308   1.342   1.357   1.417
  1.497   1.529   1.584   1.635   1.706   1.746   1.799   1.842
  1.864   1.909   1.948   1.953   1.981   1.994   2.026   2.057
  2.095   2.109   2.131   2.166   2.198   2.237   2.301   2.339
  2.384   2.394   2.415   2.471   2.488   2.516   2.544   2.557
  2.568   2.611   2.625   2.644   2.741   2.749   2.808   2.823
  2.877   2.901   2.990   3.007   3.065   3.253   3.270   3.332
  3.389   3.444   3.458   3.633   3.666   4.046   4.299   4.341
  4.530   4.628   4.657
 --------------------------------------------------------------
 
          Ground-State Mulliken Net Atomic Charges

     Atom                 Charge (a.u.)
  ----------------------------------------
      1 C                    -0.228797
      2 C                    -0.076669
      3 C                     0.006522
      4 O                    -0.447630
      5 C                     0.157010
      6 C                    -0.215375
      7 H                     0.111828
      8 H                     0.102358
      9 H                     0.085121
     10 H                     0.110321
     11 H                     0.095285
     12 H                     0.100362
     13 H                     0.123735
     14 H                     0.075930
  ----------------------------------------
  Sum of atomic charges =     0.000000

 -----------------------------------------------------------------
                    Cartesian Multipole Moments
 -----------------------------------------------------------------
    Charge (ESU x 10^10)
                -0.0000
    Dipole Moment (Debye)
         X      -0.4198      Y       0.7875      Z      -0.9540
       Tot       1.3063
    Quadrupole Moments (Debye-Ang)
        XX     -36.8450     XY       3.4566     YY     -39.5955
        XZ      -2.3034     YZ       2.5570     ZZ     -36.0711
    Octopole Moments (Debye-Ang^2)
       XXX     -96.9612    XXY      30.1848    XYY     -38.0289
       YYY      71.9002    XXZ     -37.2727    XYZ       6.1695
       YYZ     -38.1670    XZZ     -35.4044    YZZ      28.4077
       ZZZ     -92.0684
    Hexadecapole Moments (Debye-Ang^3)
      XXXX    -373.8884   XXXY     113.2741   XXYY    -125.7195
      XYYY     116.2928   YYYY    -298.0311   XXXZ    -115.4537
      XXYZ      19.2933   XYYZ     -42.9495   YYYZ      27.9258
      XXZZ    -143.7213   XYZZ      44.9667   YYZZ    -132.5096
      XZZZ    -108.5920   YZZZ      37.2517   ZZZZ    -400.2500
 -----------------------------------------------------------------
 Calculating analytic gradient of the SCF energy
 Gradient of SCF Energy
            1           2           3           4           5           6
    1   0.0214299   0.0038019   0.0121902  -0.0095424  -0.0071903  -0.0316954
    2  -0.0266811  -0.0217632  -0.0150423   0.0211930   0.0326166   0.0198529
    3  -0.0203045   0.0001518  -0.0020992   0.0009012   0.0113937   0.0102931
            7           8           9          10          11          12
    1   0.0012659  -0.0016739  -0.0002570  -0.0062654   0.0043429   0.0016095
    2   0.0048865   0.0002278   0.0090532  -0.0036146  -0.0112774   0.0044425
    3   0.0057196   0.0030536   0.0006720  -0.0008991  -0.0079281  -0.0001061
           13          14
    1   0.0099521   0.0020320
    2  -0.0082960  -0.0055981
    3   0.0014318  -0.0022798
 Max gradient component =       3.262E-02
 RMS gradient           =       1.233E-02
 Gradient time:  CPU 6.50 s  wall 0.81 s
 Geometry Optimization Parameters
   NAtoms,    NIC,     NZ,  NCons,   NDum,   NFix, NCnnct, MaxDiis
       14     123      14       0       0       0       0       0

 Cartesian Hessian Update
 Hessian Updated using BFGS Update


** GEOMETRY OPTIMIZATION IN DELOCALIZED INTERNAL COORDINATES **
   Searching for a Minimum

   Optimization Cycle:   6

                       Coordinates (Angstroms)
     ATOM                X               Y               Z
      1  C        -0.1450576758    0.1697709316    0.0794085366
      2  C        -0.1040266914    0.1378017587    1.4413910814
      3  C         1.2057864268    0.0378312737    2.1249062281
      4  O         1.7588659481   -1.2668704128    1.7743176197
      5  C         1.8584471939   -1.3161004193    0.4402062693
      6  C         0.8174738053   -1.8160793505   -0.2653595580
      7  H         0.6594156717    0.6458592217   -0.4671099919
      8  H        -1.1123929749    0.1281993235   -0.4184024968
      9  H        -1.0107795313    0.0402702829    2.0299570614
     10  H         1.0944540679    0.0424633022    3.2090367614
     11  H         1.9778507079    0.7205985520    1.7540964815
     12  H         0.8820288143   -1.8187417649   -1.3511181265
     13  H         0.1753920258   -2.5363631798    0.2274207201
     14  H         2.6911427965   -0.7945804093   -0.0406260971
   Point Group: c1    Number of degrees of freedom:    36


   Energy is   -270.458507124

 Hessian Updated using BFGS Update

 34 Hessian modes will be used to form the next step
  Hessian Eigenvalues:
     0.013354    0.016250    0.020625    0.022768    0.029751    0.036235
     0.038906    0.044325    0.050123    0.057715    0.060011    0.072302
     0.074377    0.076887    0.088567    0.089213    0.100643    0.110841
     0.125217    0.132193    0.160236    0.173689    0.193223    0.348075
     0.348127    0.348128    0.348131    0.348457    0.350508    0.371076
     0.395183    0.446753    0.474259    0.645403

 Minimum Search - Taking Simple RFO Step
 Searching for Lamda that Minimizes Along All modes
 Value Taken    Lamda =  -0.02999052
 Calculated Step too Large.  Step scaled by  0.476432
 Step Taken.  Stepsize is  0.300000

                             Maximum     Tolerance    Cnvgd?
         Gradient           0.019909      0.000300      NO
         Displacement       0.136969      0.001200      NO
         Energy change     -0.017384      0.000001      NO


 New Cartesian Coordinates Obtained by Inverse Iteration

 Displacement from previous Coordinates is:  0.277717
 ----------------------------------------------------------------
             Standard Nuclear Orientation (Angstroms)
    I     Atom           X                Y                Z
 ----------------------------------------------------------------
    1      C      -0.1748920568     0.2161380269     0.0953377249
    2      C      -0.1159953575     0.1621350599     1.4476044854
    3      C       1.2007033319     0.0483654434     2.1241252834
    4      O       1.7730144120    -1.2789712396     1.7699694651
    5      C       1.8807625236    -1.3535544853     0.4313990956
    6      C       0.8513186907    -1.8521602694    -0.2798638377
    7      H       0.6317890394     0.6663110628    -0.4694696704
    8      H      -1.1381471425     0.1666717985    -0.4089799021
    9      H      -1.0146296069     0.0306854893     2.0431878765
   10      H       1.1013376380     0.0434094008     3.2092218152
   11      H       1.9577247170     0.7580064521     1.7735399756
   12      H       0.9151736075    -1.8720366196    -1.3651525496
   13      H       0.1642849962    -2.5308284924     0.2109445482
   14      H       2.7161557920    -0.8301125178    -0.0437398208
 ----------------------------------------------------------------
 Nuclear Repulsion Energy =   236.5478409193 hartrees
 There are       23 alpha and       23 beta electrons
 Applying Cartesian multipole field
    Component          Value
    ---------          -----
     (2,0,0)        1.00000E-11
     (0,2,0)        2.00000E-11
     (0,0,2)       -3.00000E-11
 Nucleus-field energy     =    -0.0000000025 hartrees
 Requested basis set is 6-31G(d,p)
 There are 48 shells and 130 basis functions
 A cutoff of  1.0D-11 yielded   1118 shell pairs
 There are      8454 function pairs
 Smallest overlap matrix eigenvalue = 3.60E-03
 Guess MOs from SCF MO coefficient file

 -----------------------------------------------------------------------
  General SCF calculation program by
  Eric Jon Sundstrom, Paul Horn, Yuezhi Mao, Dmitri Zuev, Alec White,
  David Stuck, Shaama M.S., Shane Yost, Joonho Lee, David Small,
  Daniel Levine, Susi Lehtola, Hugh Burton, Evgeny Epifanovsky
 -----------------------------------------------------------------------
 Exchange:     0.2000 Hartree-Fock + 0.0800 Slater + 0.7200 B88
 Correlation:  0.1900 VWN1RPA + 0.8100 LYP
 Using SG-1 standard quadrature grid
 using 8 threads for integral computing
 -------------------------------------------------------
 OpenMP Integral computing Module                
 Release: version 1.0, May 2013, Q-Chem Inc. Pittsburgh 
 -------------------------------------------------------
 -------------------------------------------------------
 OpenMP BLAS3 based DFT computing Module                
 Release: version 1.0, May 2013, Q-Chem Inc. Pittsburgh 
 -------------------------------------------------------
 A restricted SCF calculation will be
 performed using DIIS
 SCF converges when DIIS error is below 1.0e-08
 ---------------------------------------
  Cycle       Energy         DIIS error
 ---------------------------------------
    1    -270.4689272192      6.55e-04  
    2    -270.4708776123      1.28e-04  
    3    -270.4709036318      1.21e-04  
    4    -270.4709331728      2.14e-05  
    5    -270.4709341283      7.49e-06  
    6    -270.4709342055      4.51e-06  
    7    -270.4709342394      9.36e-07  
    8    -270.4709342410      4.57e-07  
    9    -270.4709342415      8.31e-08  
   10    -270.4709342415      3.14e-08  
   11    -270.4709342415      6.11e-09  Convergence criterion met
 ---------------------------------------
 SCF time:   CPU 15.87s  wall 2.00s 
 SCF   energy in the final basis set =     -270.4709342415
 Total energy in the final basis set =     -270.4709342415
 
 --------------------------------------------------------------
 
                    Orbital Energies (a.u.)
 --------------------------------------------------------------
 
 Alpha MOs
 -- Occupied --
-19.158 -10.233 -10.225 -10.189 -10.180 -10.174  -1.044  -0.780
 -0.755  -0.667  -0.577  -0.561  -0.490  -0.471  -0.462  -0.431
 -0.409  -0.388  -0.368  -0.348  -0.285  -0.266  -0.207
 -- Virtual --
 -0.006   0.032   0.109   0.115   0.132   0.152   0.164   0.169
  0.187   0.194   0.205   0.295   0.299   0.334   0.345   0.492
  0.509   0.526   0.548   0.571   0.575   0.608   0.630   0.653
  0.666   0.684   0.738   0.756   0.789   0.818   0.834   0.838
  0.859   0.875   0.894   0.921   0.934   0.964   1.016   1.093
  1.135   1.178   1.225   1.255   1.299   1.328   1.359   1.414
  1.489   1.510   1.568   1.627   1.690   1.727   1.798   1.830
  1.869   1.894   1.945   1.950   1.959   1.970   2.017   2.051
  2.083   2.111   2.126   2.162   2.193   2.233   2.281   2.335
  2.381   2.385   2.408   2.458   2.491   2.528   2.545   2.555
  2.570   2.615   2.617   2.637   2.734   2.742   2.807   2.822
  2.867   2.898   2.985   3.014   3.060   3.246   3.265   3.321
  3.391   3.448   3.461   3.644   3.674   4.019   4.284   4.332
  4.515   4.618   4.651
 --------------------------------------------------------------
 
          Ground-State Mulliken Net Atomic Charges

     Atom                 Charge (a.u.)
  ----------------------------------------
      1 C                    -0.221290
      2 C                    -0.069666
      3 C                     0.003809
      4 O                    -0.459715
      5 C                     0.162574
      6 C                    -0.218442
      7 H                     0.109954
      8 H                     0.101585
      9 H                     0.087345
     10 H                     0.112894
     11 H                     0.100000
     12 H                     0.097645
     13 H                     0.119939
     14 H                     0.073369
  ----------------------------------------
  Sum of atomic charges =    -0.000000

 -----------------------------------------------------------------
                    Cartesian Multipole Moments
 -----------------------------------------------------------------
    Charge (ESU x 10^10)
                -0.0000
    Dipole Moment (Debye)
         X      -0.5096      Y       0.9437      Z      -0.8877
       Tot       1.3922
    Quadrupole Moments (Debye-Ang)
        XX     -36.9401     XY       3.6774     YY     -39.7558
        XZ      -2.3802     YZ       2.7659     ZZ     -35.8994
    Octopole Moments (Debye-Ang^2)
       XXX     -97.6362    XXY      30.4937    XYY     -38.2997
       YYY      72.7915    XXZ     -37.4147    XYZ       6.6439
       YYZ     -38.3388    XZZ     -35.6579    YZZ      28.8454
       ZZZ     -91.6980
    Hexadecapole Moments (Debye-Ang^3)
      XXXX    -381.2502   XXXY     117.9708   XXYY    -128.6688
      XYYY     121.5765   YYYY    -311.3515   XXXZ    -115.2772
      XXYZ      19.5140   XYYZ     -42.8733   YYYZ      27.0831
      XXZZ    -145.2271   XYZZ      47.2751   YYZZ    -134.3753
      XZZZ    -108.0838   YZZZ      36.7684   ZZZZ    -400.1518
 -----------------------------------------------------------------
 Calculating analytic gradient of the SCF energy
 Gradient of SCF Energy
            1           2           3           4           5           6
    1   0.0182319  -0.0000943   0.0073934  -0.0041317  -0.0024327  -0.0253951
    2  -0.0259353  -0.0137001  -0.0050169   0.0066336   0.0191669   0.0214766
    3  -0.0140146  -0.0012836   0.0007968  -0.0019033   0.0064277   0.0097696
            7           8           9          10          11          12
    1  -0.0002319  -0.0009987  -0.0002673  -0.0050715   0.0028784   0.0007769
    2   0.0055274   0.0003027   0.0081707  -0.0021367  -0.0064944   0.0031405
    3   0.0040897   0.0016269   0.0009666  -0.0006144  -0.0049353  -0.0001664
           13          14
    1   0.0081291   0.0012134
    2  -0.0076583  -0.0034766
    3   0.0009066  -0.0016665
 Max gradient component =       2.594E-02
 RMS gradient           =       9.166E-03
 Gradient time:  CPU 6.43 s  wall 0.81 s
 Geometry Optimization Parameters
   NAtoms,    NIC,     NZ,  NCons,   NDum,   NFix, NCnnct, MaxDiis
       14     123      14       0       0       0       0       0

 Cartesian Hessian Update
 Hessian Updated using BFGS Update


** GEOMETRY OPTIMIZATION IN DELOCALIZED INTERNAL COORDINATES **
   Searching for a Minimum

   Optimization Cycle:   7

                       Coordinates (Angstroms)
     ATOM                X               Y               Z
      1  C        -0.1748920568    0.2161380269    0.0953377249
      2  C        -0.1159953575    0.1621350599    1.4476044854
      3  C         1.2007033319    0.0483654434    2.1241252834
      4  O         1.7730144120   -1.2789712396    1.7699694651
      5  C         1.8807625236   -1.3535544853    0.4313990956
      6  C         0.8513186907   -1.8521602694   -0.2798638377
      7  H         0.6317890394    0.6663110628   -0.4694696704
      8  H        -1.1381471425    0.1666717985   -0.4089799021
      9  H        -1.0146296069    0.0306854893    2.0431878765
     10  H         1.1013376380    0.0434094008    3.2092218152
     11  H         1.9577247170    0.7580064521    1.7735399756
     12  H         0.9151736075   -1.8720366196   -1.3651525496
     13  H         0.1642849962   -2.5308284924    0.2109445482
     14  H         2.7161557920   -0.8301125178   -0.0437398208
   Point Group: c1    Number of degrees of freedom:    36


[...]

 Cartesian Hessian Update
 Hessian Updated using BFGS Update


** GEOMETRY OPTIMIZATION IN DELOCALIZED INTERNAL COORDINATES **
   Searching for a Minimum

   Optimization Cycle:  60

                       Coordinates (Angstroms)
     ATOM                X               Y               Z
      1  C        -0.5115592503    1.5061324159    0.6153757110
      2  C        -0.3059143564    0.4003695049    1.3295113250
      3  C         1.0416950379   -0.0467993378    1.8215592437
      4  O         1.3160680550   -1.4195418219    1.5180843716
      5  C         1.5570081830   -1.7013885082    0.2036268050
      6  C         1.7731710329   -2.9430190975   -0.2285525280
      7  H         0.3101230650    2.1562536738    0.3231755466
      8  H        -1.5062158424    1.8105623926    0.3042718018
      9  H        -1.1413859834   -0.2404717836    1.6077723224
     10  H         1.0860886585    0.0022737855    2.9149364633
     11  H         1.8343597195    0.6030361367    1.4236992628
     12  H         1.9768589428   -3.1208784144   -1.2769282971
     13  H         1.7545727316   -3.7898078070    0.4482650529
     14  H         1.5637305911   -0.8426620293   -0.4666725917
   Point Group: c1    Number of degrees of freedom:    36


   Energy is   -270.517033248

 Hessian Updated using BFGS Update

 35 Hessian modes will be used to form the next step
  Hessian Eigenvalues:
     0.000168    0.001564    0.001838    0.010627    0.013363    0.015749
     0.024692    0.029021    0.033000    0.041674    0.045514    0.048643
     0.060671    0.072832    0.076338    0.085350    0.089045    0.095077
     0.098120    0.130537    0.146600    0.162132    0.317543    0.347944
     0.348175    0.348263    0.348320    0.349040    0.349817    0.351865
     0.353151    0.415373    0.450468    0.679659    1.781892

 Minimum Search - Taking Simple RFO Step
 Searching for Lamda that Minimizes Along All modes
 Value Taken    Lamda =  -0.00000146
 Step Taken.  Stepsize is  0.037022

                             Maximum     Tolerance    Cnvgd?
         Gradient           0.000391      0.000300      NO
         Displacement       0.019380      0.001200      NO
         Energy change     -0.000001      0.000001     YES


 New Cartesian Coordinates Obtained by Inverse Iteration

 Displacement from previous Coordinates is:  0.024239
 ----------------------------------------------------------------
             Standard Nuclear Orientation (Angstroms)
    I     Atom           X                Y                Z
 ----------------------------------------------------------------
    1      C      -0.5103100606     1.5063881281     0.6147147068
    2      C      -0.3058255534     0.4011298018     1.3301550476
    3      C       1.0415782797    -0.0472579110     1.8224716133
    4      O       1.3142527826    -1.4201343579     1.5182496649
    5      C       1.5536286807    -1.7018454198     0.2037129538
    6      C       1.7752846582    -2.9424602292    -0.2283485610
    7      H       0.3120677779     2.1555322553     0.3222574086
    8      H      -1.5043920567     1.8112352157     0.3021794673
    9      H      -1.1418896505    -0.2387747899     1.6087191444
   10      H       1.0858790312     0.0009460636     2.9158500652
   11      H       1.8348100987     0.6017668919     1.4245805729
   12      H       1.9766303802    -3.1193159915    -1.2773522643
   13      H       1.7613704539    -3.7895393827     0.4482140653
   14      H       1.5555157629    -0.8436111647    -0.4672793955
 ----------------------------------------------------------------
 Nuclear Repulsion Energy =   219.6662387051 hartrees
 There are       23 alpha and       23 beta electrons
 Applying Cartesian multipole field
    Component          Value
    ---------          -----
     (2,0,0)        1.00000E-11
     (0,2,0)        2.00000E-11
     (0,0,2)       -3.00000E-11
 Nucleus-field energy     =     0.0000000049 hartrees
 Requested basis set is 6-31G(d,p)
 There are 48 shells and 130 basis functions
 A cutoff of  1.0D-11 yielded   1027 shell pairs
 There are      7767 function pairs
 Smallest overlap matrix eigenvalue = 3.70E-03
 Guess MOs from SCF MO coefficient file

 -----------------------------------------------------------------------
  General SCF calculation program by
  Eric Jon Sundstrom, Paul Horn, Yuezhi Mao, Dmitri Zuev, Alec White,
  David Stuck, Shaama M.S., Shane Yost, Joonho Lee, David Small,
  Daniel Levine, Susi Lehtola, Hugh Burton, Evgeny Epifanovsky
 -----------------------------------------------------------------------
 Exchange:     0.2000 Hartree-Fock + 0.0800 Slater + 0.7200 B88
 Correlation:  0.1900 VWN1RPA + 0.8100 LYP
 Using SG-1 standard quadrature grid
 using 8 threads for integral computing
 -------------------------------------------------------
 OpenMP Integral computing Module                
 Release: version 1.0, May 2013, Q-Chem Inc. Pittsburgh 
 -------------------------------------------------------
 -------------------------------------------------------
 OpenMP BLAS3 based DFT computing Module                
 Release: version 1.0, May 2013, Q-Chem Inc. Pittsburgh 
 -------------------------------------------------------
 A restricted SCF calculation will be
 performed using DIIS
 SCF converges when DIIS error is below 1.0e-08
 ---------------------------------------
  Cycle       Energy         DIIS error
 ---------------------------------------
    1    -270.5170182693      5.74e-05  
    2    -270.5170339120      6.46e-06  
    3    -270.5170341382      4.61e-06  
    4    -270.5170341699      1.56e-06  
    5    -270.5170341739      5.24e-07  
    6    -270.5170341744      1.69e-07  
    7    -270.5170341745      5.67e-08  
    8    -270.5170341745      1.42e-08  
    9    -270.5170341745      7.36e-09  Convergence criterion met
 ---------------------------------------
 SCF time:   CPU 11.28s  wall 2.00s 
 SCF   energy in the final basis set =     -270.5170341745
 Total energy in the final basis set =     -270.5170341745
 
 --------------------------------------------------------------
 
                    Orbital Energies (a.u.)
 --------------------------------------------------------------
 
 Alpha MOs
 -- Occupied --
-19.170 -10.247 -10.232 -10.199 -10.194 -10.161  -1.054  -0.798
 -0.749  -0.678  -0.582  -0.566  -0.512  -0.477  -0.458  -0.438
 -0.401  -0.382  -0.380  -0.338  -0.326  -0.273  -0.217
 -- Virtual --
  0.001   0.041   0.107   0.114   0.131   0.143   0.155   0.166
  0.180   0.188   0.206   0.288   0.306   0.350   0.359   0.498
  0.502   0.517   0.531   0.558   0.572   0.594   0.612   0.628
  0.658   0.686   0.688   0.718   0.761   0.805   0.829   0.844
  0.856   0.871   0.883   0.916   0.929   0.962   1.021   1.097
  1.114   1.154   1.180   1.233   1.280   1.352   1.376   1.380
  1.394   1.450   1.473   1.547   1.579   1.733   1.764   1.809
  1.851   1.869   1.887   1.909   1.956   1.987   2.001   2.027
  2.072   2.084   2.103   2.130   2.153   2.190   2.238   2.307
  2.338   2.363   2.417   2.424   2.467   2.499   2.514   2.557
  2.603   2.625   2.646   2.683   2.693   2.739   2.751   2.820
  2.834   2.874   2.971   3.009   3.089   3.226   3.267   3.301
  3.414   3.452   3.455   3.669   3.722   4.002   4.190   4.207
  4.423   4.505   4.632
 --------------------------------------------------------------
 
          Ground-State Mulliken Net Atomic Charges

     Atom                 Charge (a.u.)
  ----------------------------------------
      1 C                    -0.234814
      2 C                    -0.039049
      3 C                     0.012057
      4 O                    -0.467809
      5 C                     0.213175
      6 C                    -0.300081
      7 H                     0.099164
      8 H                     0.108222
      9 H                     0.104416
     10 H                     0.121434
     11 H                     0.098957
     12 H                     0.095779
     13 H                     0.100120
     14 H                     0.088429
  ----------------------------------------
  Sum of atomic charges =    -0.000000

 -----------------------------------------------------------------
                    Cartesian Multipole Moments
 -----------------------------------------------------------------
    Charge (ESU x 10^10)
                -0.0000
    Dipole Moment (Debye)
         X      -0.4052      Y       1.7443      Z      -0.1989
       Tot       1.8018
    Quadrupole Moments (Debye-Ang)
        XX     -37.4384     XY       2.2748     YY     -38.5822
        XZ      -1.1998     YZ       1.7498     ZZ     -36.0633
    Octopole Moments (Debye-Ang^2)
       XXX     -98.3301    XXY      31.9780    XYY     -31.1882
       YYY      74.3273    XXZ     -32.5256    XYZ       5.8438
       YYZ     -36.4339    XZZ     -28.2467    YZZ      24.9786
       ZZZ     -89.7370
    Hexadecapole Moments (Debye-Ang^3)
      XXXX    -410.2417   XXXY     220.1122   XXYY    -185.3377
      XYYY     192.5071   YYYY    -658.7835   XXXZ     -55.1148
      XXYZ       6.3866   XYYZ     -22.7368   YYYZ      -5.1883
      XXZZ    -120.9449   XYZZ      71.7610   YYZZ    -179.1096
      XZZZ     -48.3021   YZZZ       4.0664   ZZZZ    -325.0958
 -----------------------------------------------------------------
 Calculating analytic gradient of the SCF energy
 Gradient of SCF Energy
            1           2           3           4           5           6
    1   0.0000804  -0.0001514   0.0000225   0.0000123   0.0000410  -0.0000570
    2  -0.0001254   0.0001048  -0.0000570   0.0000790   0.0000097  -0.0000309
    3   0.0001209  -0.0000947  -0.0000644   0.0000339  -0.0000601   0.0000491
            7           8           9          10          11          12
    1   0.0000272   0.0000200  -0.0000155  -0.0000382   0.0000212   0.0000022
    2  -0.0000119   0.0000241   0.0000345  -0.0000012  -0.0000167   0.0000220
    3  -0.0000010  -0.0000088  -0.0000059   0.0000056   0.0000375   0.0000020
           13          14
    1   0.0000094   0.0000258
    2  -0.0000225  -0.0000084
    3  -0.0000190   0.0000048
 Max gradient component =       1.514E-04
 RMS gradient           =       5.264E-05
 Gradient time:  CPU 5.50 s  wall 0.69 s
 Geometry Optimization Parameters
   NAtoms,    NIC,     NZ,  NCons,   NDum,   NFix, NCnnct, MaxDiis
       14     123      14       0       0       0       0       0

 Cartesian Hessian Update
 Hessian Updated using BFGS Update


** GEOMETRY OPTIMIZATION IN DELOCALIZED INTERNAL COORDINATES **
   Searching for a Minimum

   Optimization Cycle:  61

                       Coordinates (Angstroms)
     ATOM                X               Y               Z
      1  C        -0.5103100606    1.5063881281    0.6147147068
      2  C        -0.3058255534    0.4011298018    1.3301550476
      3  C         1.0415782797   -0.0472579110    1.8224716133
      4  O         1.3142527826   -1.4201343579    1.5182496649
      5  C         1.5536286807   -1.7018454198    0.2037129538
      6  C         1.7752846582   -2.9424602292   -0.2283485610
      7  H         0.3120677779    2.1555322553    0.3222574086
      8  H        -1.5043920567    1.8112352157    0.3021794673
      9  H        -1.1418896505   -0.2387747899    1.6087191444
     10  H         1.0858790312    0.0009460636    2.9158500652
     11  H         1.8348100987    0.6017668919    1.4245805729
     12  H         1.9766303802   -3.1193159915   -1.2773522643
     13  H         1.7613704539   -3.7895393827    0.4482140653
     14  H         1.5555157629   -0.8436111647   -0.4672793955
   Point Group: c1    Number of degrees of freedom:    36


   Energy is   -270.517034175

 Hessian Updated using BFGS Update

 36 Hessian modes will be used to form the next step
  Hessian Eigenvalues:
     0.000147    0.001564    0.001919    0.010507    0.013338    0.014593
     0.024223    0.028324    0.033052    0.041603    0.044802    0.048397
     0.060755    0.073913    0.076189    0.082883    0.088868    0.094982
     0.098116    0.128470    0.143245    0.162103    0.247572    0.333128
     0.347968    0.348179    0.348279    0.348325    0.349054    0.350298
     0.351906    0.354687    0.413956    0.455921    0.689095    1.615419

 Minimum Search - Taking Simple RFO Step
 Searching for Lamda that Minimizes Along All modes
 Value Taken    Lamda =   0.00000000
 Step Taken.  Stepsize is  0.029357

                             Maximum     Tolerance    Cnvgd?
         Gradient           0.000267      0.000300     YES
         Displacement       0.015041      0.001200      NO
         Energy change     -0.000001      0.000001     YES


                       Distance Matrix (Angstroms)
             C (  1)   C (  2)   C (  3)   O (  4)   C (  5)   C (  6)
   C (  2)  1.332391
   C (  3)  2.506162  1.502972
   O (  4)  3.565100  2.444798  1.432373
   C (  5)  3.836864  3.024723  2.370703  1.365529
   C (  6)  5.072174  4.235510  3.623035  2.362336  1.332266
   H (  7)  1.087761  2.115556  2.763171  3.901303  4.053997  5.332326
   H (  8)  1.085730  2.117001  3.499607  4.457054  4.658640  5.799600
   H (  9)  2.105358  1.089073  2.202249  2.726982  3.373490  4.381169
   H ( 10)  3.179528  2.147421  1.095337  2.006218  3.236352  4.361755
   H ( 11)  2.640797  2.152090  1.099439  2.089937  2.622253  3.911172
   H ( 12)  5.582287  4.939862  4.463269  3.337866  2.093253  1.082694
   H ( 13)  5.764989  4.755295  4.051093  2.637986  2.112203  1.084193
   H ( 14)  3.310717  2.871366  2.478159  2.081565  1.089404  2.123806
             H (  7)   H (  8)   H (  9)   H ( 10)   H ( 11)   H ( 12)
   H (  8)  1.848910
   H (  9)  3.082480  2.457844
   H ( 10)  3.459443  4.100966  2.594034
   H ( 11)  2.438862  3.724630  3.098574  1.773631
   H ( 12)  5.757911  6.238812  5.133429  5.302115  4.600762
   H ( 13)  6.120475  6.484999  4.731133  4.573106  4.499139  1.863630
   H ( 14)  3.341316  4.123507  3.457108  3.518437  2.397135  2.452017
             H ( 13)
   H ( 14)  3.091763
 
 Final energy is   -270.517034174504     


 ******************************
 **  OPTIMIZATION CONVERGED  **
 ******************************

                       Coordinates (Angstroms)
     ATOM                X               Y               Z
      1  C        -0.5103100606    1.5063881281    0.6147147068
      2  C        -0.3058255534    0.4011298018    1.3301550476
      3  C         1.0415782797   -0.0472579110    1.8224716133
      4  O         1.3142527826   -1.4201343579    1.5182496649
      5  C         1.5536286807   -1.7018454198    0.2037129538
      6  C         1.7752846582   -2.9424602292   -0.2283485610
      7  H         0.3120677779    2.1555322553    0.3222574086
      8  H        -1.5043920567    1.8112352157    0.3021794673
      9  H        -1.1418896505   -0.2387747899    1.6087191444
     10  H         1.0858790312    0.0009460636    2.9158500652
     11  H         1.8348100987    0.6017668919    1.4245805729
     12  H         1.9766303802   -3.1193159915   -1.2773522643
     13  H         1.7613704539   -3.7895393827    0.4482140653
     14  H         1.5555157629   -0.8436111647   -0.4672793955

Z-matrix Print:
$molecule
0 1
O 
C  1 1.365529
H  2 1.089404 1 115.512301
C  2 1.332266 1 122.240229 3 179.743047 0
H  4 1.082694 2 119.819218 1 -179.025173 0
H  4 1.084193 2 121.536468 1 0.867667 0
C  1 1.432373 2 115.821099 3 2.629057 0
H  7 1.095337 1 104.269996 2 -168.730409 0
H  7 1.099439 1 110.584717 2 -53.078324 0
C  7 1.502972 1 112.769987 2 71.365920 0
H  10 1.089073 7 115.413502 1 50.585681 0
C  10 1.332391 7 124.121615 1 -130.243287 0
H  12 1.085730 10 121.870243 7 -178.184803 0
H  12 1.087761 10 121.559134 7 1.192409 0
$end

 
 --------------------------------------------------------------
 
                    Orbital Energies (a.u.)
 --------------------------------------------------------------
 
 Alpha MOs
 -- Occupied --
-19.170 -10.247 -10.232 -10.199 -10.194 -10.161  -1.054  -0.798
 -0.749  -0.678  -0.582  -0.566  -0.512  -0.477  -0.458  -0.438
 -0.401  -0.382  -0.380  -0.338  -0.326  -0.273  -0.217
 -- Virtual --
  0.001   0.041   0.107   0.114   0.131   0.143   0.155   0.166
  0.180   0.188   0.206   0.288   0.306   0.350   0.359   0.498
  0.502   0.517   0.531   0.558   0.572   0.594   0.612   0.628
  0.658   0.686   0.688   0.718   0.761   0.805   0.829   0.844
  0.856   0.871   0.883   0.916   0.929   0.962   1.021   1.097
  1.114   1.154   1.180   1.233   1.280   1.352   1.376   1.380
  1.394   1.450   1.473   1.547   1.579   1.733   1.764   1.809
  1.851   1.869   1.887   1.909   1.956   1.987   2.001   2.027
  2.072   2.084   2.103   2.130   2.153   2.190   2.238   2.307
  2.338   2.363   2.417   2.424   2.467   2.499   2.514   2.557
  2.603   2.625   2.646   2.683   2.693   2.739   2.751   2.820
  2.834   2.874   2.971   3.009   3.089   3.226   3.267   3.301
  3.414   3.452   3.455   3.669   3.722   4.002   4.190   4.207
  4.423   4.505   4.632
 --------------------------------------------------------------
 
          Ground-State Mulliken Net Atomic Charges

     Atom                 Charge (a.u.)
  ----------------------------------------
      1 C                    -0.234814
      2 C                    -0.039049
      3 C                     0.012057
      4 O                    -0.467809
      5 C                     0.213175
      6 C                    -0.300081
      7 H                     0.099164
      8 H                     0.108222
      9 H                     0.104416
     10 H                     0.121434
     11 H                     0.098957
     12 H                     0.095779
     13 H                     0.100120
     14 H                     0.088429
  ----------------------------------------
  Sum of atomic charges =    -0.000000

 -----------------------------------------------------------------
                    Cartesian Multipole Moments
 -----------------------------------------------------------------
    Charge (ESU x 10^10)
                -0.0000
    Dipole Moment (Debye)
         X      -0.4052      Y       1.7443      Z      -0.1989
       Tot       1.8018
    Quadrupole Moments (Debye-Ang)
        XX     -37.4384     XY       2.2748     YY     -38.5822
        XZ      -1.1998     YZ       1.7498     ZZ     -36.0633
    Octopole Moments (Debye-Ang^2)
       XXX     -98.3301    XXY      31.9780    XYY     -31.1882
       YYY      74.3273    XXZ     -32.5256    XYZ       5.8438
       YYZ     -36.4339    XZZ     -28.2467    YZZ      24.9786
       ZZZ     -89.7370
    Hexadecapole Moments (Debye-Ang^3)
      XXXX    -410.2417   XXXY     220.1122   XXYY    -185.3377
      XYYY     192.5071   YYYY    -658.7835   XXXZ     -55.1148
      XXYZ       6.3866   XYYZ     -22.7368   YYYZ      -5.1883
      XXZZ    -120.9449   XYZZ      71.7610   YYZZ    -179.1096
      XZZZ     -48.3021   YZZZ       4.0664   ZZZZ    -325.0958
 -----------------------------------------------------------------
Archival summary:
1\1\node1\OPT\ProcedureUnspecified\6-31G**\158\songzl\ThuApr616:36:372023ThuApr616:36:372023\0\\#,OPT,ProcedureUnspecified,6-31G**,\\0,1\O\C,1,1.36553\H,2,1.0894,1,115.512\C,2,1.33227,1,122.24,3,179.743,0\H,4,1.08269,2,119.819,1,-179.025,0\H,4,1.08419,2,121.536,1,0.867667,0\C,1,1.43237,2,115.821,3,2.62906,0\H,7,1.09534,1,104.27,2,-168.73,0\H,7,1.09944,1,110.585,2,-53.0783,0\C,7,1.50297,1,112.77,2,71.3659,0\H,10,1.08907,7,115.414,1,50.5857,0\C,10,1.33239,7,124.122,1,-130.243,0\H,12,1.08573,10,121.87,7,-178.185,0\H,12,1.08776,10,121.559,7,1.19241,0\\\@

 Total job time:  157.26s(wall), 1251.09s(cpu) 
 Thu Apr  6 16:36:37 2023

        *************************************************************
        *                                                           *
        *  Thank you very much for using Q-Chem.  Have a nice day.  *
        *                                                           *
        *************************************************************


