
Running Job 1 of 1 baker_set_reactant.inp
qchem baker_set_reactant.inp_30754.0 /tmp/songzl/qchem_baker_set/qchem30754/ 1
/apps/apps/qchem/qc51/exe/qcprog.exe_s baker_set_reactant.inp_30754.0 /tmp/songzl/qchem_baker_set/qchem30754/
Check license passed

                  Welcome to Q-Chem
     A Quantum Leap Into The Future Of Chemistry


 Q-Chem 5.1, Q-Chem, Inc., Pleasanton, CA (2018)

 Yihan Shao,  Zhengting Gan,  E. Epifanovsky,  A. T. B. Gilbert,  M. Wormit,  
 J. Kussmann,  A. W. Lange,  A. Behn,  Jia Deng,  Xintian Feng,  D. Ghosh,  
 M. Goldey,  P. R. Horn,  L. D. Jacobson,  I. Kaliman,  T. Kus,  A. Landau,  
 Jie Liu,  E. I. Proynov,  R. M. Richard,  R. P. Steele,  E. J. Sundstrom,  
 H. L. Woodcock III,  P. M. Zimmerman,  D. Zuev,  B. Albrecht,  E. Alguire,  
 S. A. Baeppler,  D. Barton,  Z. Benda,  Y. A. Bernard,  E. J. Berquist,  
 K. B. Bravaya,  H. Burton,  D. Casanova,  Chun-Min Chang,  Yunqing Chen,  
 A. Chien,  K. D. Closser,  M. P. Coons,  S. Coriani,  S. Dasgupta,  
 A. L. Dempwolff,  M. Diedenhofen,  Hainam Do,  R. G. Edgar,  Po-Tung Fang,  
 S. Faraji,  S. Fatehi,  Qingguo Feng,  K. D. Fenk,  J. Fosso-Tande,  
 Qinghui Ge,  A. Ghysels,  G. Gidofalvi,  J. Gomes,  J. Gonthier,  A. Gunina,  
 D. Hait,  M. W. D. Hanson-Heine,  P. H. P. Harbach,  A. W. Hauser,  
 J. E. Herr,  E. G. Hohenstein,  Z. C. Holden,  Kerwin Hui,  B. C. Huynh,  
 T.-C. Jagau,  Hyunjun Ji,  B. Kaduk,  K. Khistyaev,  Jaehoon Kim,  
 P. Klunzinger,  K. Koh,  D. Kosenkov,  L. Koulias,  T. Kowalczyk,  
 C. M. Krauter,  A. Kunitsa,  Ka Un Lao,  A. Laurent,  K. V. Lawler,  
 Joonho Lee,  D. Lefrancois,  S. Lehtola,  D. S. Levine,  Yi-Pei Li,  
 You-Sheng Lin,  Fenglai Liu,  E. Livshits,  A. Luenser,  P. Manohar,  
 E. Mansoor,  S. F. Manzer,  Shan-Ping Mao,  Yuezhi Mao,  N. Mardirossian,  
 A. V. Marenich,  T. Markovich,  L. A. Martinez-Martinez,  S. A. Maurer,  
 N. J. Mayhall,  S. C. McKenzie,  J.-M. Mewes,  A. F. Morrison,  
 J. W. Mullinax,  K. Nanda,  T. S. Nguyen-Beck,  R. Olivares-Amaya,  
 J. A. Parkhill,  T. M. Perrine,  F. Plasser,  P. Pokhilko,  S. Prager,  
 A. Prociuk,  E. Ramos,  D. R. Rehn,  F. Rob,  M. Schneider,  N. Sergueev,  
 S. M. Sharada,  S. Sharma,  D. W. Small,  T. Stauch,  T. Stein,  
 Yu-Chuan Su,  A. J. W. Thom,  A. Tkatchenko,  T. Tsuchimochi,  N. M. Tubman,  
 L. Vogt,  M. L. Vidal,  O. Vydrov,  M. A. Watson,  J. Wenzel,  
 M. de Wergifosse,  T. A. Wesolowski,  A. White,  J. Witte,  A. Yamada,  
 Jun Yang,  K. Yao,  S. Yeganeh,  S. R. Yost,  Zhi-Qiang You,  A. Zech,  
 Igor Ying Zhang,  Xing Zhang,  Yan Zhao,  Ying Zhu,  B. R. Brooks,  
 G. K. L. Chan,  C. J. Cramer,  M. S. Gordon,  W. J. Hehre,  A. Klamt,  
 M. W. Schmidt,  C. D. Sherrill,  D. G. Truhlar,  A. Aspuru-Guzik,  R. Baer,  
 A. T. Bell,  N. A. Besley,  Jeng-Da Chai,  A. E. DePrince, III,  
 R. A. DiStasio Jr.,  A. Dreuw,  B. D. Dunietz,  T. R. Furlani,  
 Chao-Ping Hsu,  Yousung Jung,  Jing Kong,  D. S. Lambrecht,  WanZhen Liang,  
 C. Ochsenfeld,  V. A. Rassolov,  L. V. Slipchenko,  J. E. Subotnik,  
 T. Van Voorhis,  J. M. Herbert,  A. I. Krylov,  P. M. W. Gill,  M. Head-Gordon

 Contributors to earlier versions of Q-Chem not listed above: 
 R. D. Adamson,  B. Austin,  J. Baker,  G. J. O. Beran,  K. Brandhorst,  
 S. T. Brown,  E. F. C. Byrd,  A. K. Chakraborty,  C.-L. Cheng,  
 Siu Hung Chien,  D. M. Chipman,  D. L. Crittenden,  H. Dachsel,  
 R. J. Doerksen,  A. D. Dutoi,  L. Fusti-Molnar,  W. A. Goddard III,  
 A. Golubeva-Zadorozhnaya,  S. R. Gwaltney,  G. Hawkins,  A. Heyden,  
 S. Hirata,  G. Kedziora,  F. J. Keil,  C. Kelley,  Jihan Kim,  R. A. King,  
 R. Z. Khaliullin,  P. P. Korambath,  W. Kurlancheek,  A. M. Lee,  M. S. Lee,  
 S. V. Levchenko,  Ching Yeh Lin,  D. Liotard,  R. C. Lochan,  I. Lotan,  
 P. E. Maslen,  N. Nair,  D. P. O'Neill,  D. Neuhauser,  E. Neuscamman,  
 C. M. Oana,  R. Olson,  B. Peters,  R. Peverati,  P. A. Pieniazek,  
 Y. M. Rhee,  J. Ritchie,  M. A. Rohrdanz,  E. Rosta,  N. J. Russ,  
 H. F. Schaefer III,  N. E. Schultz,  N. Shenvi,  A. C. Simmonett,  A. Sodt,  
 D. Stuck,  K. S. Thanthiriwatte,  V. Vanovschi,  Tao Wang,  A. Warshel,  
 C. F. Williams,  Q. Wu,  X. Xu,  W. Zhang

 Please cite Q-Chem as follows:
 Y. Shao et al., Mol. Phys. 113, 184-215 (2015)
 DOI: 10.1080/00268976.2014.952696

 Q-Chem 5.1.1 for Intel X86 EM64T Linux

 Parts of Q-Chem use Armadillo 8.300.2 (Tropical Shenanigans).
 http://arma.sourceforge.net/

 Q-Chem begins on Thu Apr  6 13:49:59 2023  

Host: 
0

     Scratch files written to /tmp/songzl/qchem_baker_set/qchem30754//
 Aug318 |scratch|qcdevops|jenkins|workspace|build_RNUM 6609   
Processing $rem in /apps/apps/qchem/qc51/config/preferences.
 MEM_TOTAL  1000 
The previous job contains 0 fragments, simply inherited here
Input Ideriv = 2
Curr. Ideriv = -1
Max.  Ideriv = 2

Checking the input file for inconsistencies... 	...done.

--------------------------------------------------------------
User input:
--------------------------------------------------------------
$molecule
READ ./zmat.inp
$end

$rem
mem_total               230000
mem_static              2048
job_type                optimization
basis                   6-31g**
method                  b3lyp
symmetry                false
sym_ignore              true
geom_opt_max_cycles     500
$end
--------------------------------------------------------------
 ----------------------------------------------------------------
             Standard Nuclear Orientation (Angstroms)
    I     Atom           X                Y                Z
 ----------------------------------------------------------------
    1      P       0.0000000000     0.0000000000     0.0000000000
    2      O       0.0000000000     0.0000000000     1.5000000000
    3      O       1.2990381057     0.0000000000    -0.7500000000
    4      O      -1.2990381057     0.0000000000    -0.7500000000
    5      O       0.0000000000     2.0000000000     3.4641016151
    6      H       0.0000000000     1.1909830056     2.8763163628
    7      H      -0.0000000000     1.7076282953     4.4204063711
 ----------------------------------------------------------------
 Nuclear Repulsion Energy =   228.2613758229 hartrees
 There are       25 alpha and       25 beta electrons
 Requested basis set is 6-31G(d,p)
 There are 27 shells and 89 basis functions

 Total QAlloc Memory Limit 230000 MB
 Mega-Array Size      2002 MB
 MEM_STATIC part      2048 MB
 A cutoff of  1.0D-11 yielded    319 shell pairs
 There are      3642 function pairs
 
 -------------------------------------------------------
 OpenMP Integral Computing Module                       
 Release: version 1.0, May 2013, Q-Chem Inc. Pittsburgh 
 -------------------------------------------------------
 Integral Job Info:
 Integral job number is                      11
 Integral operator is                         1
 short-range coefficients                     0
 long-range coefficients              100000000
 Omega coefficients                           0
 if combine SR and LR in K                    0
 Integral screening is                        0
 Integral computing path is                   2
 max size of driver memory is            800000
 size of driver memory is                593474
 size of scratch memory is             15267112
 max col of scratch BK array               1296
 max len of scratch array in speh3          155
 max len of scratch index in speh4           18
 max int batch size is                      520
 min int batch size is                       52
 fixed nKL is                                52
 max L of basis functions is                  2
 order of int derivative is                   0
 number of shells is                         27
 number of basis is                          89
 number of cartesian basis is                89
 number of contracted shell pairs           319
 number of primitive shell pairs           1498
 maxK2 (contraction) of shell pair           36
 max number of K2 of shell pair               1
 max number of CS2 of shell pair             37
 max number of PS2 of shell pair            222
 mem total for path MDJ                  516588
 -------------------------------------------------------
 Smallest overlap matrix eigenvalue = 1.15E-02

 Scale SEOQF with 1.000000e+00/1.000000e-01/1.000000e-01

 Standard Electronic Orientation quadrupole field applied
 Nucleus-field energy     =    -0.0000000039 hartrees
 Guess from superposition of atomic densities
 Warning:  Energy on first SCF cycle will be non-variational
 SAD guess density has 49.000000 electrons

 -----------------------------------------------------------------------
  General SCF calculation program by
  Eric Jon Sundstrom, Paul Horn, Yuezhi Mao, Dmitri Zuev, Alec White,
  David Stuck, Shaama M.S., Shane Yost, Joonho Lee, David Small,
  Daniel Levine, Susi Lehtola, Hugh Burton, Evgeny Epifanovsky
 -----------------------------------------------------------------------
 Exchange:     0.2000 Hartree-Fock + 0.0800 Slater + 0.7200 B88
 Correlation:  0.1900 VWN1RPA + 0.8100 LYP
 Using SG-1 standard quadrature grid
 using 8 threads for integral computing
 -------------------------------------------------------
 OpenMP Integral computing Module                
 Release: version 1.0, May 2013, Q-Chem Inc. Pittsburgh 
 -------------------------------------------------------
 -------------------------------------------------------
 OpenMP BLAS3 based DFT computing Module                
 Release: version 1.0, May 2013, Q-Chem Inc. Pittsburgh 
 -------------------------------------------------------
 A restricted SCF calculation will be
 performed using DIIS
 SCF converges when DIIS error is below 1.0e-08
 ---------------------------------------
  Cycle       Energy         DIIS error
 ---------------------------------------
    1    -644.0289136558      7.71e-02  
    2    -643.2415653813      2.09e-02  
    3    -642.8884976235      3.03e-02  
    4    -643.5632744773      2.48e-03  
    5    -643.5666917702      1.53e-03  
    6    -643.5682742265      4.77e-04  
    7    -643.5684412785      1.43e-04  
    8    -643.5684561541      1.67e-05  
    9    -643.5684563678      1.88e-06  
   10    -643.5684563709      2.72e-07  
   11    -643.5684563709      5.67e-08  
   12    -643.5684563710      1.12e-08  
   13    -643.5684563710      1.83e-09  Convergence criterion met
 ---------------------------------------
 SCF time:   CPU 7.07s  wall 1.00s 
 SCF   energy in the final basis set =     -643.5684563710
 Total energy in the final basis set =     -643.5684563710
 
 --------------------------------------------------------------
 
                    Orbital Energies (a.u.)
 --------------------------------------------------------------
 
 Alpha MOs
 -- Occupied --
-76.995 -18.973 -18.939 -18.929 -18.929  -6.450  -4.616  -4.611
 -4.610  -0.830  -0.815  -0.755  -0.747  -0.354  -0.304  -0.224
 -0.216  -0.211  -0.194  -0.134  -0.128  -0.126  -0.114  -0.104
 -0.066
 -- Virtual --
  0.177   0.203   0.219   0.361   0.379   0.418   0.472   0.493
  0.612   0.614   0.870   0.872   0.905   0.965   0.979   1.008
  1.021   1.046   1.072   1.154   1.155   1.194   1.197   1.217
  1.230   1.233   1.316   1.373   1.374   1.475   1.570   1.573
  1.634   1.684   1.746   1.821   1.963   1.981   1.988   2.001
  2.003   2.015   2.045   2.151   2.268   2.301   2.360   2.489
  2.494   2.514   2.653   2.753   2.813   2.872   3.018   3.030
  3.145   3.457   3.621   3.680   3.822   3.924   3.967   4.058
 --------------------------------------------------------------
 
          Ground-State Mulliken Net Atomic Charges

     Atom                 Charge (a.u.)
  ----------------------------------------
      1 P                     0.911785
      2 O                    -0.623356
      3 O                    -0.607747
      4 O                    -0.607747
      5 O                    -0.687742
      6 H                     0.352097
      7 H                     0.262710
  ----------------------------------------
  Sum of atomic charges =    -1.000000

 -----------------------------------------------------------------
                    Cartesian Multipole Moments
 -----------------------------------------------------------------
    Charge (ESU x 10^10)
                -4.8032
    Dipole Moment (Debye)
         X       0.0000      Y      -2.5272      Z      -0.7944
       Tot       2.6491
    Quadrupole Moments (Debye-Ang)
        XX     -45.6652     XY      -0.0000     YY     -41.5602
        XZ      -0.0000     YZ      -7.7080     ZZ     -44.3437
    Octopole Moments (Debye-Ang^2)
       XXX       0.0000    XXY     -14.0691    XYY       0.0000
       YYY     -59.2488    XXZ     -19.0038    XYZ       0.0000
       YYZ     -48.4139    XZZ      -0.0000    YZZ     -31.9123
       ZZZ     -54.4561
    Hexadecapole Moments (Debye-Ang^3)
      XXXX    -166.3438   XXXY      -0.0000   XXYY     -57.8197
      XYYY       0.0000   YYYY    -228.7148   XXXZ       0.0000
      XXYZ     -49.5453   XYYZ      -0.0000   YYYZ    -200.9927
      XXZZ    -145.7251   XYZZ      -0.0000   YYZZ    -208.7638
      XZZZ      -0.0000   YZZZ    -161.4593   ZZZZ    -478.8511
 -----------------------------------------------------------------
 Calculating analytic gradient of the SCF energy
 Gradient of SCF Energy
            1           2           3           4           5           6
    1  -0.0000000   0.0000000  -0.0024091   0.0024091   0.0000000   0.0000000
    2  -0.0023349   0.0010882   0.0008043   0.0008043   0.0108946  -0.0103356
    3   0.0138929  -0.0134885  -0.0017906  -0.0017906  -0.0218547  -0.0102764
            7
    1   0.0000000
    2  -0.0009210
    3   0.0353078
 Max gradient component =       3.531E-02
 RMS gradient           =       1.082E-02
 Gradient time:  CPU 3.34 s  wall 0.42 s
 Geometry Optimization Parameters
   NAtoms,    NIC,     NZ,  NCons,   NDum,   NFix, NCnnct, MaxDiis
        7      30       7       0       0       0       0       0


** GEOMETRY OPTIMIZATION IN DELOCALIZED INTERNAL COORDINATES **
   Searching for a Minimum

   Optimization Cycle:   1

                       Coordinates (Angstroms)
     ATOM                X               Y               Z
      1  P         0.0000000000    0.0000000000    0.0000000000
      2  O         0.0000000000    0.0000000000    1.5000000000
      3  O         1.2990381057    0.0000000000   -0.7500000000
      4  O        -1.2990381057    0.0000000000   -0.7500000000
      5  O         0.0000000000    2.0000000000    3.4641016151
      6  H         0.0000000000    1.1909830056    2.8763163628
      7  H         0.0000000000    1.7076282953    4.4204063711
   Point Group: c1    Number of degrees of freedom:    15


   Energy is   -643.568456371


 Attempting to Generate Delocalized Internal Coordinates

 14 Hessian modes will be used to form the next step
  Hessian Eigenvalues:
     0.040409    0.040409    0.058918    0.160000    0.160000    0.200000
     0.200000    0.250000    0.250000    0.476883    0.476883    0.766766
     0.766766    0.766766

 Minimum Search - Taking Simple RFO Step
 Searching for Lamda that Minimizes Along All modes
 Value Taken    Lamda =  -0.00556553
 Step Taken.  Stepsize is  0.155387

                             Maximum     Tolerance    Cnvgd?
         Gradient           0.025381      0.000300      NO
         Displacement       0.114985      0.001200      NO
         Energy change     *********      0.000001      NO


 New Cartesian Coordinates Obtained by Inverse Iteration

 Displacement from previous Coordinates is:  0.274388
 ----------------------------------------------------------------
             Standard Nuclear Orientation (Angstroms)
    I     Atom           X                Y                Z
 ----------------------------------------------------------------
    1      P       0.0000000000     0.0369152695     0.0096880447
    2      O       0.0000000000     0.0445610127     1.5167329498
    3      O       1.3069182473    -0.0230892397    -0.7257115044
    4      O      -1.3069182473    -0.0230892397    -0.7257115044
    5      O       0.0000000000     2.0139816232     3.4659708652
    6      H       0.0000000000     1.2288712301     2.8753229726
    7      H       0.0000000000     1.6204606449     4.3445325256
 ----------------------------------------------------------------
 Nuclear Repulsion Energy =   228.5997159007 hartrees
 There are       25 alpha and       25 beta electrons
 Applying Cartesian multipole field
    Component          Value
    ---------          -----
     (2,0,0)        1.00000E-10
     (0,2,0)        2.00000E-11
     (0,0,2)       -3.00000E-11
 Nucleus-field energy     =    -0.0000000037 hartrees
 Requested basis set is 6-31G(d,p)
 There are 27 shells and 89 basis functions
 A cutoff of  1.0D-11 yielded    319 shell pairs
 There are      3642 function pairs
 Smallest overlap matrix eigenvalue = 1.15E-02
 Guess MOs from SCF MO coefficient file

 -----------------------------------------------------------------------
  General SCF calculation program by
  Eric Jon Sundstrom, Paul Horn, Yuezhi Mao, Dmitri Zuev, Alec White,
  David Stuck, Shaama M.S., Shane Yost, Joonho Lee, David Small,
  Daniel Levine, Susi Lehtola, Hugh Burton, Evgeny Epifanovsky
 -----------------------------------------------------------------------
 Exchange:     0.2000 Hartree-Fock + 0.0800 Slater + 0.7200 B88
 Correlation:  0.1900 VWN1RPA + 0.8100 LYP
 Using SG-1 standard quadrature grid
 using 8 threads for integral computing
 -------------------------------------------------------
 OpenMP Integral computing Module                
 Release: version 1.0, May 2013, Q-Chem Inc. Pittsburgh 
 -------------------------------------------------------
 -------------------------------------------------------
 OpenMP BLAS3 based DFT computing Module                
 Release: version 1.0, May 2013, Q-Chem Inc. Pittsburgh 
 -------------------------------------------------------
 A restricted SCF calculation will be
 performed using DIIS
 SCF converges when DIIS error is below 1.0e-08
 ---------------------------------------
  Cycle       Energy         DIIS error
 ---------------------------------------
    1    -643.5673870184      1.56e-03  
    2    -643.5708661213      4.52e-04  
    3    -643.5707637986      6.06e-04  
    4    -643.5710123139      1.42e-04  
    5    -643.5710266001      4.70e-05  
    6    -643.5710282111      7.29e-06  
    7    -643.5710282403      4.41e-06  
    8    -643.5710282548      4.06e-07  
    9    -643.5710282549      6.71e-08  
   10    -643.5710282549      1.27e-08  
   11    -643.5710282549      2.98e-09  Convergence criterion met
 ---------------------------------------
 SCF time:   CPU 5.98s  wall 1.00s 
 SCF   energy in the final basis set =     -643.5710282549
 Total energy in the final basis set =     -643.5710282549
 
 --------------------------------------------------------------
 
                    Orbital Energies (a.u.)
 --------------------------------------------------------------
 
 Alpha MOs
 -- Occupied --
-76.997 -18.969 -18.938 -18.931 -18.931  -6.451  -4.618  -4.612
 -4.612  -0.832  -0.826  -0.753  -0.749  -0.352  -0.305  -0.228
 -0.215  -0.212  -0.201  -0.134  -0.128  -0.127  -0.113  -0.106
 -0.066
 -- Virtual --
  0.174   0.204   0.232   0.364   0.379   0.422   0.475   0.491
  0.607   0.614   0.867   0.872   0.928   0.964   0.979   1.006
  1.028   1.046   1.080   1.151   1.158   1.196   1.200   1.216
  1.231   1.234   1.322   1.367   1.379   1.477   1.569   1.569
  1.657   1.700   1.709   1.804   1.962   1.983   1.987   2.002
  2.004   2.013   2.043   2.150   2.260   2.301   2.437   2.492
  2.498   2.523   2.721   2.799   2.840   2.868   3.014   3.026
  3.192   3.507   3.623   3.728   3.822   3.919   3.967   4.060
 --------------------------------------------------------------
 
          Ground-State Mulliken Net Atomic Charges

     Atom                 Charge (a.u.)
  ----------------------------------------
      1 P                     0.914468
      2 O                    -0.626989
      3 O                    -0.606857
      4 O                    -0.606857
      5 O                    -0.678442
      6 H                     0.343741
      7 H                     0.260937
  ----------------------------------------
  Sum of atomic charges =    -1.000000

 -----------------------------------------------------------------
                    Cartesian Multipole Moments
 -----------------------------------------------------------------
    Charge (ESU x 10^10)
                -4.8032
    Dipole Moment (Debye)
         X      -0.0000      Y      -2.5328      Z      -1.0679
       Tot       2.7487
    Quadrupole Moments (Debye-Ang)
        XX     -45.6745     XY       0.0000     YY     -42.0161
        XZ       0.0000     YZ      -8.8572     ZZ     -45.1755
    Octopole Moments (Debye-Ang^2)
       XXX       0.0000    XXY     -14.3750    XYY       0.0000
       YYY     -61.6464    XXZ     -19.4296    XYZ      -0.0000
       YYZ     -51.3870    XZZ      -0.0000    YZZ     -37.2763
       ZZZ     -62.0492
    Hexadecapole Moments (Debye-Ang^3)
      XXXX    -167.7239   XXXY       0.0000   XXYY     -58.1673
      XYYY       0.0000   YYYY    -232.7867   XXXZ       0.0000
      XXYZ     -49.9428   XYYZ       0.0000   YYYZ    -209.2627
      XXZZ    -144.4762   XYZZ       0.0000   YYZZ    -221.5263
      XZZZ       0.0000   YZZZ    -187.9634   ZZZZ    -509.9335
 -----------------------------------------------------------------
 Calculating analytic gradient of the SCF energy
 Gradient of SCF Energy
            1           2           3           4           5           6
    1   0.0000000  -0.0000000   0.0000192  -0.0000192   0.0000000  -0.0000000
    2   0.0084833  -0.0012283  -0.0028305  -0.0028305   0.0012575  -0.0036166
    3   0.0037442  -0.0058290  -0.0000987  -0.0000987  -0.0027844   0.0073367
            7
    1   0.0000000
    2   0.0007651
    3  -0.0022702
 Max gradient component =       8.483E-03
 RMS gradient           =       3.233E-03
 Gradient time:  CPU 3.20 s  wall 0.40 s
 Geometry Optimization Parameters
   NAtoms,    NIC,     NZ,  NCons,   NDum,   NFix, NCnnct, MaxDiis
        7      30       7       0       0       0       0       0

 Cartesian Hessian Update
 Hessian Updated using BFGS Update


** GEOMETRY OPTIMIZATION IN DELOCALIZED INTERNAL COORDINATES **
   Searching for a Minimum

   Optimization Cycle:   2

                       Coordinates (Angstroms)
     ATOM                X               Y               Z
      1  P         0.0000000000    0.0369152695    0.0096880447
      2  O         0.0000000000    0.0445610127    1.5167329498
      3  O         1.3069182473   -0.0230892397   -0.7257115044
      4  O        -1.3069182473   -0.0230892397   -0.7257115044
      5  O         0.0000000000    2.0139816232    3.4659708652
      6  H         0.0000000000    1.2288712301    2.8753229726
      7  H         0.0000000000    1.6204606449    4.3445325256
   Point Group: c1    Number of degrees of freedom:    15


   Energy is   -643.571028255

 Hessian Updated using BFGS Update

 10 Hessian modes will be used to form the next step
  Hessian Eigenvalues:
     0.045385    0.059307    0.156167    0.160052    0.197393    0.250680
     0.476754    0.501558    0.757606    0.767025

 Minimum Search - Taking Simple RFO Step
 Searching for Lamda that Minimizes Along All modes
 Value Taken    Lamda =  -0.00208533
 Step Taken.  Stepsize is  0.198736

                             Maximum     Tolerance    Cnvgd?
         Gradient           0.008605      0.000300      NO
         Displacement       0.125812      0.001200      NO
         Energy change     -0.002572      0.000001      NO


 New Cartesian Coordinates Obtained by Inverse Iteration

 Displacement from previous Coordinates is:  0.291752
 ----------------------------------------------------------------
             Standard Nuclear Orientation (Angstroms)
    I     Atom           X                Y                Z
 ----------------------------------------------------------------
    1      P       0.0000000000    -0.0491321414     0.0331863301
    2      O       0.0000000000     0.0126172241     1.5438454472
    3      O       1.3085930453     0.0387239112    -0.6968114662
    4      O      -1.3085930453     0.0387239112    -0.6968114662
    5      O       0.0000000000     2.0194726208     3.4350280286
    6      H       0.0000000000     1.2349438425     2.8521656295
    7      H       0.0000000000     1.6032619324     4.2902218461
 ----------------------------------------------------------------
 Nuclear Repulsion Energy =   228.9439632420 hartrees
 There are       25 alpha and       25 beta electrons
 Applying Cartesian multipole field
    Component          Value
    ---------          -----
     (2,0,0)        1.00000E-10
     (0,2,0)        2.00000E-11
     (0,0,2)       -3.00000E-11
 Nucleus-field energy     =    -0.0000000034 hartrees
 Requested basis set is 6-31G(d,p)
 There are 27 shells and 89 basis functions
 A cutoff of  1.0D-11 yielded    319 shell pairs
 There are      3642 function pairs
 Smallest overlap matrix eigenvalue = 1.15E-02
 Guess MOs from SCF MO coefficient file

 -----------------------------------------------------------------------
  General SCF calculation program by
  Eric Jon Sundstrom, Paul Horn, Yuezhi Mao, Dmitri Zuev, Alec White,
  David Stuck, Shaama M.S., Shane Yost, Joonho Lee, David Small,
  Daniel Levine, Susi Lehtola, Hugh Burton, Evgeny Epifanovsky
 -----------------------------------------------------------------------
 Exchange:     0.2000 Hartree-Fock + 0.0800 Slater + 0.7200 B88
 Correlation:  0.1900 VWN1RPA + 0.8100 LYP
 Using SG-1 standard quadrature grid
 using 8 threads for integral computing
 -------------------------------------------------------
 OpenMP Integral computing Module                
 Release: version 1.0, May 2013, Q-Chem Inc. Pittsburgh 
 -------------------------------------------------------
 -------------------------------------------------------
 OpenMP BLAS3 based DFT computing Module                
 Release: version 1.0, May 2013, Q-Chem Inc. Pittsburgh 
 -------------------------------------------------------
 A restricted SCF calculation will be
 performed using DIIS
 SCF converges when DIIS error is below 1.0e-08
 ---------------------------------------
  Cycle       Energy         DIIS error
 ---------------------------------------
    1    -643.5579828985      2.38e-03  
    2    -643.5688920869      4.60e-04  
    3    -643.5687822810      6.72e-04  
    4    -643.5691219711      1.06e-04  
    5    -643.5691286588      5.67e-05  
    6    -643.5691309642      1.57e-05  
    7    -643.5691311597      1.62e-06  
    8    -643.5691311613      8.54e-07  
    9    -643.5691311618      9.83e-08  
   10    -643.5691311618      2.63e-08  
   11    -643.5691311618      4.10e-09  Convergence criterion met
 ---------------------------------------
 SCF time:   CPU 6.00s  wall 1.00s 
 SCF   energy in the final basis set =     -643.5691311618
 Total energy in the final basis set =     -643.5691311618
 
 --------------------------------------------------------------
 
                    Orbital Energies (a.u.)
 --------------------------------------------------------------
 
 Alpha MOs
 -- Occupied --
-76.997 -18.967 -18.937 -18.932 -18.932  -6.452  -4.618  -4.613
 -4.612  -0.834  -0.826  -0.752  -0.750  -0.350  -0.305  -0.229
 -0.215  -0.212  -0.203  -0.134  -0.128  -0.127  -0.111  -0.106
 -0.067
 -- Virtual --
  0.158   0.221   0.236   0.363   0.377   0.425   0.469   0.500
  0.603   0.613   0.866   0.872   0.931   0.965   0.977   1.006
  1.032   1.047   1.086   1.150   1.160   1.197   1.200   1.221
  1.231   1.240   1.323   1.365   1.380   1.482   1.565   1.565
  1.661   1.703   1.707   1.799   1.962   1.985   1.988   2.002
  2.003   2.012   2.037   2.158   2.250   2.294   2.461   2.491
  2.494   2.536   2.753   2.801   2.863   2.865   3.012   3.023
  3.197   3.527   3.623   3.744   3.823   3.919   3.961   4.065
 --------------------------------------------------------------
 
          Ground-State Mulliken Net Atomic Charges

     Atom                 Charge (a.u.)
  ----------------------------------------
      1 P                     0.911601
      2 O                    -0.630480
      3 O                    -0.604216
      4 O                    -0.604216
      5 O                    -0.674129
      6 H                     0.341572
      7 H                     0.259867
  ----------------------------------------
  Sum of atomic charges =    -1.000000

 -----------------------------------------------------------------
                    Cartesian Multipole Moments
 -----------------------------------------------------------------
    Charge (ESU x 10^10)
                -4.8032
    Dipole Moment (Debye)
         X      -0.0000      Y      -3.0528      Z      -1.2425
       Tot       3.2960
    Quadrupole Moments (Debye-Ang)
        XX     -45.6496     XY      -0.0000     YY     -42.1236
        XZ       0.0000     YZ      -8.5059     ZZ     -45.3035
    Octopole Moments (Debye-Ang^2)
       XXX       0.0000    XXY     -14.1014    XYY      -0.0000
       YYY     -60.8628    XXZ     -20.1786    XYZ       0.0000
       YYZ     -52.1721    XZZ      -0.0000    YZZ     -36.9215
       ZZZ     -65.7459
    Hexadecapole Moments (Debye-Ang^3)
      XXXX    -167.9567   XXXY      -0.0000   XXYY     -58.2736
      XYYY      -0.0000   YYYY    -234.0170   XXXZ       0.0000
      XXYZ     -48.6507   XYYZ       0.0000   YYYZ    -206.3171
      XXZZ    -142.3000   XYZZ      -0.0000   YYZZ    -221.1686
      XZZZ       0.0000   YZZZ    -186.6910   ZZZZ    -511.9763
 -----------------------------------------------------------------
 Calculating analytic gradient of the SCF energy
 Gradient of SCF Energy
            1           2           3           4           5           6
    1  -0.0000000  -0.0000000   0.0000440  -0.0000440   0.0000000   0.0000000
    2  -0.0244135   0.0098038   0.0082506   0.0082506  -0.0039175  -0.0015077
    3  -0.0025901  -0.0013366   0.0010229   0.0010229   0.0045505   0.0133011
            7
    1  -0.0000000
    2   0.0035339
    3  -0.0159708
 Max gradient component =       2.441E-02
 RMS gradient           =       7.933E-03
 Gradient time:  CPU 3.20 s  wall 0.40 s
 Geometry Optimization Parameters
   NAtoms,    NIC,     NZ,  NCons,   NDum,   NFix, NCnnct, MaxDiis
        7      30       7       0       0       0       0       0

 Cartesian Hessian Update
 Hessian Updated using BFGS Update


** GEOMETRY OPTIMIZATION IN DELOCALIZED INTERNAL COORDINATES **
   Searching for a Minimum

   Optimization Cycle:   3

                       Coordinates (Angstroms)
     ATOM                X               Y               Z
      1  P         0.0000000000   -0.0491321414    0.0331863301
      2  O         0.0000000000    0.0126172241    1.5438454472
      3  O         1.3085930453    0.0387239112   -0.6968114662
      4  O        -1.3085930453    0.0387239112   -0.6968114662
      5  O         0.0000000000    2.0194726208    3.4350280286
      6  H         0.0000000000    1.2349438425    2.8521656295
      7  H         0.0000000000    1.6032619324    4.2902218461
   Point Group: c1    Number of degrees of freedom:    15


   Energy is   -643.569131162

 Hessian Updated using BFGS Update

 10 Hessian modes will be used to form the next step
  Hessian Eigenvalues:
     0.058086    0.144032    0.160048    0.173746    0.221278    0.254230
     0.476921    0.515069    0.752651    0.766883

 Minimum Search - Taking Simple RFO Step
 Searching for Lamda that Minimizes Along All modes
 Value Taken    Lamda =  -0.00466013
 Step Taken.  Stepsize is  0.139089

                             Maximum     Tolerance    Cnvgd?
         Gradient           0.026023      0.000300      NO
         Displacement       0.094618      0.001200      NO
         Energy change      0.001897      0.000001      NO


 New Cartesian Coordinates Obtained by Inverse Iteration

 Displacement from previous Coordinates is:  0.225982
 ----------------------------------------------------------------
             Standard Nuclear Orientation (Angstroms)
    I     Atom           X                Y                Z
 ----------------------------------------------------------------
    1      P       0.0000000000     0.0102023912     0.0158481703
    2      O       0.0000000000     0.0443078747     1.5260290988
    3      O       1.3074046762    -0.0105495900    -0.7208284344
    4      O      -1.3074046762    -0.0105495900    -0.7208284344
    5      O       0.0000000000     2.0178140329     3.4650524032
    6      H       0.0000000000     1.2430133350     2.8592333234
    7      H       0.0000000000     1.6043728471     4.3363182220
 ----------------------------------------------------------------
 Nuclear Repulsion Energy =   228.4989078801 hartrees
 There are       25 alpha and       25 beta electrons
 Applying Cartesian multipole field
    Component          Value
    ---------          -----
     (2,0,0)        1.00000E-10
     (0,2,0)        2.00000E-11
     (0,0,2)       -3.00000E-11
 Nucleus-field energy     =    -0.0000000037 hartrees
 Requested basis set is 6-31G(d,p)
 There are 27 shells and 89 basis functions
 A cutoff of  1.0D-11 yielded    319 shell pairs
 There are      3642 function pairs
 Smallest overlap matrix eigenvalue = 1.15E-02
 Guess MOs from SCF MO coefficient file

 -----------------------------------------------------------------------
  General SCF calculation program by
  Eric Jon Sundstrom, Paul Horn, Yuezhi Mao, Dmitri Zuev, Alec White,
  David Stuck, Shaama M.S., Shane Yost, Joonho Lee, David Small,
  Daniel Levine, Susi Lehtola, Hugh Burton, Evgeny Epifanovsky
 -----------------------------------------------------------------------
 Exchange:     0.2000 Hartree-Fock + 0.0800 Slater + 0.7200 B88
 Correlation:  0.1900 VWN1RPA + 0.8100 LYP
 Using SG-1 standard quadrature grid
 using 8 threads for integral computing
 -------------------------------------------------------
 OpenMP Integral computing Module                
 Release: version 1.0, May 2013, Q-Chem Inc. Pittsburgh 
 -------------------------------------------------------
 -------------------------------------------------------
 OpenMP BLAS3 based DFT computing Module                
 Release: version 1.0, May 2013, Q-Chem Inc. Pittsburgh 
 -------------------------------------------------------
 A restricted SCF calculation will be
 performed using DIIS
 SCF converges when DIIS error is below 1.0e-08
 ---------------------------------------
  Cycle       Energy         DIIS error
 ---------------------------------------
    1    -643.5657079874      1.74e-03  
    2    -643.5714903919      2.91e-04  
    3    -643.5714562664      4.22e-04  
    4    -643.5715820064      1.18e-04  
    5    -643.5715928165      2.83e-05  
    6    -643.5715933272      1.04e-05  
    7    -643.5715934080      2.30e-06  
    8    -643.5715934116      6.34e-07  
    9    -643.5715934119      4.16e-08  
   10    -643.5715934119      8.29e-09  Convergence criterion met
 ---------------------------------------
 SCF time:   CPU 5.47s  wall 1.00s 
 SCF   energy in the final basis set =     -643.5715934119
 Total energy in the final basis set =     -643.5715934119
 
 --------------------------------------------------------------
 
                    Orbital Energies (a.u.)
 --------------------------------------------------------------
 
 Alpha MOs
 -- Occupied --
-76.998 -18.969 -18.938 -18.931 -18.931  -6.452  -4.618  -4.613
 -4.613  -0.831  -0.825  -0.753  -0.750  -0.351  -0.305  -0.228
 -0.216  -0.212  -0.201  -0.134  -0.129  -0.127  -0.113  -0.106
 -0.067
 -- Virtual --
  0.176   0.200   0.231   0.364   0.378   0.423   0.476   0.491
  0.606   0.613   0.865   0.871   0.928   0.962   0.978   1.006
  1.028   1.047   1.082   1.151   1.160   1.195   1.199   1.217
  1.231   1.237   1.322   1.365   1.378   1.475   1.569   1.570
  1.657   1.701   1.715   1.805   1.961   1.983   1.987   2.001
  2.003   2.012   2.042   2.146   2.258   2.301   2.439   2.488
  2.495   2.520   2.730   2.798   2.841   2.866   3.013   3.022
  3.188   3.506   3.622   3.728   3.821   3.922   3.968   4.068
 --------------------------------------------------------------
 
          Ground-State Mulliken Net Atomic Charges

     Atom                 Charge (a.u.)
  ----------------------------------------
      1 P                     0.915530
      2 O                    -0.629462
      3 O                    -0.606019
      4 O                    -0.606019
      5 O                    -0.680029
      6 H                     0.345168
      7 H                     0.260830
  ----------------------------------------
  Sum of atomic charges =    -1.000000

 -----------------------------------------------------------------
                    Cartesian Multipole Moments
 -----------------------------------------------------------------
    Charge (ESU x 10^10)
                -4.8032
    Dipole Moment (Debye)
         X      -0.0000      Y      -2.6994      Z      -1.1649
       Tot       2.9400
    Quadrupole Moments (Debye-Ang)
        XX     -45.6680     XY      -0.0000     YY     -42.1160
        XZ       0.0000     YZ      -8.9722     ZZ     -45.5346
    Octopole Moments (Debye-Ang^2)
       XXX      -0.0000    XXY     -14.2448    XYY      -0.0000
       YYY     -61.6106    XXZ     -19.6833    XYZ       0.0000
       YYZ     -52.0784    XZZ      -0.0000    YZZ     -38.0216
       ZZZ     -64.4252
    Hexadecapole Moments (Debye-Ang^3)
      XXXX    -167.7516   XXXY      -0.0000   XXYY     -58.2656
      XYYY      -0.0000   YYYY    -234.0316   XXXZ       0.0000
      XXYZ     -49.9407   XYYZ       0.0000   YYYZ    -210.5413
      XXZZ    -144.4317   XYZZ      -0.0000   YYZZ    -224.2263
      XZZZ       0.0000   YZZZ    -192.2968   ZZZZ    -517.8341
 -----------------------------------------------------------------
 Calculating analytic gradient of the SCF energy
 Gradient of SCF Energy
            1           2           3           4           5           6
    1  -0.0000000  -0.0000000   0.0002649  -0.0002649  -0.0000000   0.0000000
    2  -0.0014005   0.0019680   0.0004923   0.0004923   0.0023430  -0.0039805
    3   0.0006774  -0.0019090  -0.0004235  -0.0004235  -0.0037264   0.0065108
            7
    1  -0.0000000
    2   0.0000854
    3  -0.0007058
 Max gradient component =       6.511E-03
 RMS gradient           =       2.059E-03
 Gradient time:  CPU 3.21 s  wall 0.40 s
 Geometry Optimization Parameters
   NAtoms,    NIC,     NZ,  NCons,   NDum,   NFix, NCnnct, MaxDiis
        7      30       7       0       0       0       0       0

 Cartesian Hessian Update
 Hessian Updated using BFGS Update


** GEOMETRY OPTIMIZATION IN DELOCALIZED INTERNAL COORDINATES **
   Searching for a Minimum

   Optimization Cycle:   4

                       Coordinates (Angstroms)
     ATOM                X               Y               Z
      1  P         0.0000000000    0.0102023912    0.0158481703
      2  O         0.0000000000    0.0443078747    1.5260290988
      3  O         1.3074046762   -0.0105495900   -0.7208284344
      4  O        -1.3074046762   -0.0105495900   -0.7208284344
      5  O         0.0000000000    2.0178140329    3.4650524032
      6  H         0.0000000000    1.2430133350    2.8592333234
      7  H         0.0000000000    1.6043728471    4.3363182220
   Point Group: c1    Number of degrees of freedom:    15


   Energy is   -643.571593412

 Hessian Updated using BFGS Update

 10 Hessian modes will be used to form the next step
  Hessian Eigenvalues:
     0.058203    0.150902    0.160028    0.171086    0.206136    0.254625
     0.477018    0.507626    0.752719    0.767038

 Minimum Search - Taking Simple RFO Step
 Searching for Lamda that Minimizes Along All modes
 Value Taken    Lamda =  -0.00027742
 Step Taken.  Stepsize is  0.042979

                             Maximum     Tolerance    Cnvgd?
         Gradient           0.003956      0.000300      NO
         Displacement       0.028298      0.001200      NO
         Energy change     -0.002462      0.000001      NO


 New Cartesian Coordinates Obtained by Inverse Iteration

 Displacement from previous Coordinates is:  0.065468
 ----------------------------------------------------------------
             Standard Nuclear Orientation (Angstroms)
    I     Atom           X                Y                Z
 ----------------------------------------------------------------
    1      P       0.0000000000     0.0155856963     0.0153187797
    2      O       0.0000000000     0.0586974042     1.5257420337
    3      O       1.3080314155    -0.0195637020    -0.7190573381
    4      O      -1.3080314155    -0.0195637020    -0.7190573381
    5      O       0.0000000000     2.0194496786     3.4737339743
    6      H       0.0000000000     1.2587585785     2.8492032452
    7      H       0.0000000000     1.5852473472     4.3349409924
 ----------------------------------------------------------------
 Nuclear Repulsion Energy =   228.4851808439 hartrees
 There are       25 alpha and       25 beta electrons
 Applying Cartesian multipole field
    Component          Value
    ---------          -----
     (2,0,0)        1.00000E-10
     (0,2,0)        2.00000E-11
     (0,0,2)       -3.00000E-11
 Nucleus-field energy     =    -0.0000000037 hartrees
 Requested basis set is 6-31G(d,p)
 There are 27 shells and 89 basis functions
 A cutoff of  1.0D-11 yielded    319 shell pairs
 There are      3642 function pairs
 Smallest overlap matrix eigenvalue = 1.15E-02
 Guess MOs from SCF MO coefficient file

 -----------------------------------------------------------------------
  General SCF calculation program by
  Eric Jon Sundstrom, Paul Horn, Yuezhi Mao, Dmitri Zuev, Alec White,
  David Stuck, Shaama M.S., Shane Yost, Joonho Lee, David Small,
  Daniel Levine, Susi Lehtola, Hugh Burton, Evgeny Epifanovsky
 -----------------------------------------------------------------------
 Exchange:     0.2000 Hartree-Fock + 0.0800 Slater + 0.7200 B88
 Correlation:  0.1900 VWN1RPA + 0.8100 LYP
 Using SG-1 standard quadrature grid
 using 8 threads for integral computing
 -------------------------------------------------------
 OpenMP Integral computing Module                
 Release: version 1.0, May 2013, Q-Chem Inc. Pittsburgh 
 -------------------------------------------------------
 -------------------------------------------------------
 OpenMP BLAS3 based DFT computing Module                
 Release: version 1.0, May 2013, Q-Chem Inc. Pittsburgh 
 -------------------------------------------------------
 A restricted SCF calculation will be
 performed using DIIS
 SCF converges when DIIS error is below 1.0e-08
 ---------------------------------------
  Cycle       Energy         DIIS error
 ---------------------------------------
    1    -643.5716082443      3.84e-04  
    2    -643.5718458772      4.32e-05  
    3    -643.5718481146      2.61e-05  
    4    -643.5718483612      2.04e-05  
    5    -643.5718486721      3.38e-06  
    6    -643.5718486802      1.37e-06  
    7    -643.5718486815      2.29e-07  
    8    -643.5718486815      8.27e-08  
    9    -643.5718486815      2.82e-08  
   10    -643.5718486815      1.80e-09  Convergence criterion met
 ---------------------------------------
 SCF time:   CPU 5.53s  wall 1.00s 
 SCF   energy in the final basis set =     -643.5718486815
 Total energy in the final basis set =     -643.5718486815
 
 --------------------------------------------------------------
 
                    Orbital Energies (a.u.)
 --------------------------------------------------------------
 
 Alpha MOs
 -- Occupied --
-76.998 -18.968 -18.938 -18.932 -18.932  -6.453  -4.619  -4.613
 -4.613  -0.831  -0.825  -0.754  -0.750  -0.351  -0.305  -0.229
 -0.216  -0.213  -0.200  -0.134  -0.129  -0.127  -0.113  -0.107
 -0.068
 -- Virtual --
  0.175   0.200   0.232   0.364   0.378   0.424   0.477   0.490
  0.605   0.613   0.865   0.871   0.928   0.960   0.978   1.005
  1.028   1.047   1.084   1.150   1.161   1.194   1.200   1.215
  1.230   1.238   1.322   1.365   1.380   1.475   1.569   1.569
  1.656   1.702   1.720   1.805   1.961   1.983   1.986   2.001
  2.002   2.011   2.042   2.145   2.257   2.301   2.441   2.488
  2.494   2.518   2.735   2.798   2.842   2.865   3.012   3.021
  3.186   3.507   3.622   3.729   3.821   3.925   3.968   4.073
 --------------------------------------------------------------
 
          Ground-State Mulliken Net Atomic Charges

     Atom                 Charge (a.u.)
  ----------------------------------------
      1 P                     0.915652
      2 O                    -0.629805
      3 O                    -0.605578
      4 O                    -0.605578
      5 O                    -0.681883
      6 H                     0.346201
      7 H                     0.260991
  ----------------------------------------
  Sum of atomic charges =    -1.000000

 -----------------------------------------------------------------
                    Cartesian Multipole Moments
 -----------------------------------------------------------------
    Charge (ESU x 10^10)
                -4.8032
    Dipole Moment (Debye)
         X      -0.0000      Y      -2.6948      Z      -1.2448
       Tot       2.9684
    Quadrupole Moments (Debye-Ang)
        XX     -45.6672     XY      -0.0000     YY     -42.1955
        XZ       0.0000     YZ      -9.2970     ZZ     -45.9068
    Octopole Moments (Debye-Ang^2)
       XXX      -0.0000    XXY     -14.2403    XYY      -0.0000
       YYY     -61.9897    XXZ     -19.7662    XYZ       0.0000
       YYZ     -52.7421    XZZ      -0.0000    YZZ     -39.3616
       ZZZ     -66.4984
    Hexadecapole Moments (Debye-Ang^3)
      XXXX    -167.8360   XXXY      -0.0000   XXYY     -58.3326
      XYYY      -0.0000   YYYY    -234.9732   XXXZ       0.0000
      XXYZ     -50.3187   XYYZ       0.0000   YYYZ    -213.0982
      XXZZ    -144.7692   XYZZ      -0.0000   YYZZ    -227.7953
      XZZZ       0.0000   YZZZ    -199.3088   ZZZZ    -527.7648
 -----------------------------------------------------------------
 Calculating analytic gradient of the SCF energy
 Gradient of SCF Energy
            1           2           3           4           5           6
    1  -0.0000000  -0.0000000   0.0002037  -0.0002037   0.0000000  -0.0000000
    2   0.0005028   0.0013033  -0.0001492  -0.0001492   0.0023637  -0.0040443
    3  -0.0003460  -0.0014967  -0.0000382  -0.0000382  -0.0033197   0.0057204
            7
    1  -0.0000000
    2   0.0001729
    3  -0.0004816
 Max gradient component =       5.720E-03
 RMS gradient           =       1.831E-03
 Gradient time:  CPU 3.19 s  wall 0.40 s
 Geometry Optimization Parameters
   NAtoms,    NIC,     NZ,  NCons,   NDum,   NFix, NCnnct, MaxDiis
        7      30       7       0       0       0       0       0

 Cartesian Hessian Update
 Hessian Updated using BFGS Update


** GEOMETRY OPTIMIZATION IN DELOCALIZED INTERNAL COORDINATES **
   Searching for a Minimum

   Optimization Cycle:   5

                       Coordinates (Angstroms)
     ATOM                X               Y               Z
      1  P         0.0000000000    0.0155856963    0.0153187797
      2  O         0.0000000000    0.0586974042    1.5257420337
      3  O         1.3080314155   -0.0195637020   -0.7190573381
      4  O        -1.3080314155   -0.0195637020   -0.7190573381
      5  O         0.0000000000    2.0194496786    3.4737339743
      6  H         0.0000000000    1.2587585785    2.8492032452
      7  H         0.0000000000    1.5852473472    4.3349409924
   Point Group: c1    Number of degrees of freedom:    15


   Energy is   -643.571848682

 Hessian Updated using BFGS Update

 10 Hessian modes will be used to form the next step
  Hessian Eigenvalues:
     0.014571    0.062905    0.160047    0.163776    0.254252    0.322026
     0.478310    0.507881    0.753987    0.769173

 Minimum Search - Taking Simple RFO Step
 Searching for Lamda that Minimizes Along All modes
 Value Taken    Lamda =  -0.00195358
 Calculated Step too Large.  Step scaled by  0.879621
 Step Taken.  Stepsize is  0.300000

                             Maximum     Tolerance    Cnvgd?
         Gradient           0.003325      0.000300      NO
         Displacement       0.195327      0.001200      NO
         Energy change     -0.000255      0.000001      NO


 New Cartesian Coordinates Obtained by Inverse Iteration

 Displacement from previous Coordinates is:  0.443269
 ----------------------------------------------------------------
             Standard Nuclear Orientation (Angstroms)
    I     Atom           X                Y                Z
 ----------------------------------------------------------------
    1      P       0.0000000000     0.0314550858     0.0247879675
    2      O       0.0000000000     0.1527783647     1.5336761651
    3      O       1.3087521964    -0.0656461798    -0.6997372297
    4      O      -1.3087521964    -0.0656461798    -0.6997372297
    5      O       0.0000000000     2.0240512638     3.5235793653
    6      H       0.0000000000     1.3738321732     2.7800983551
    7      H       0.0000000000     1.4477867731     4.2981569555
 ----------------------------------------------------------------
 Nuclear Repulsion Energy =   228.5850422868 hartrees
 There are       25 alpha and       25 beta electrons
 Applying Cartesian multipole field
    Component          Value
    ---------          -----
     (2,0,0)        1.00000E-10
     (0,2,0)        2.00000E-11
     (0,0,2)       -3.00000E-11
 Nucleus-field energy     =    -0.0000000039 hartrees
 Requested basis set is 6-31G(d,p)
 There are 27 shells and 89 basis functions
 A cutoff of  1.0D-11 yielded    319 shell pairs
 There are      3642 function pairs
 Smallest overlap matrix eigenvalue = 1.14E-02
 Guess MOs from SCF MO coefficient file

 -----------------------------------------------------------------------
  General SCF calculation program by
  Eric Jon Sundstrom, Paul Horn, Yuezhi Mao, Dmitri Zuev, Alec White,
  David Stuck, Shaama M.S., Shane Yost, Joonho Lee, David Small,
  Daniel Levine, Susi Lehtola, Hugh Burton, Evgeny Epifanovsky
 -----------------------------------------------------------------------
 Exchange:     0.2000 Hartree-Fock + 0.0800 Slater + 0.7200 B88
 Correlation:  0.1900 VWN1RPA + 0.8100 LYP
 Using SG-1 standard quadrature grid
 using 8 threads for integral computing
 -------------------------------------------------------
 OpenMP Integral computing Module                
 Release: version 1.0, May 2013, Q-Chem Inc. Pittsburgh 
 -------------------------------------------------------
 -------------------------------------------------------
 OpenMP BLAS3 based DFT computing Module                
 Release: version 1.0, May 2013, Q-Chem Inc. Pittsburgh 
 -------------------------------------------------------
 A restricted SCF calculation will be
 performed using DIIS
 SCF converges when DIIS error is below 1.0e-08
 ---------------------------------------
  Cycle       Energy         DIIS error
 ---------------------------------------
    1    -643.5637505018      2.45e-03  
    2    -643.5729340848      2.73e-04  
    3    -643.5730149045      1.80e-04  
    4    -643.5730351072      7.16e-05  
    5    -643.5730386258      1.72e-05  
    6    -643.5730387687      1.09e-05  
    7    -643.5730388548      2.49e-06  
    8    -643.5730388593      7.14e-07  
    9    -643.5730388597      1.06e-07  
   10    -643.5730388597      1.19e-08  
   11    -643.5730388597      2.89e-09  Convergence criterion met
 ---------------------------------------
 SCF time:   CPU 6.01s  wall 0.00s 
 SCF   energy in the final basis set =     -643.5730388597
 Total energy in the final basis set =     -643.5730388597
 
 --------------------------------------------------------------
 
                    Orbital Energies (a.u.)
 --------------------------------------------------------------
 
 Alpha MOs
 -- Occupied --
-77.000 -18.964 -18.941 -18.935 -18.935  -6.455  -4.621  -4.616
 -4.616  -0.833  -0.821  -0.756  -0.754  -0.348  -0.307  -0.232
 -0.219  -0.215  -0.197  -0.136  -0.131  -0.124  -0.115  -0.110
 -0.070
 -- Virtual --
  0.172   0.198   0.238   0.363   0.376   0.424   0.482   0.490
  0.601   0.612   0.861   0.869   0.919   0.952   0.975   1.003
  1.028   1.049   1.099   1.148   1.164   1.192   1.197   1.215
  1.228   1.252   1.325   1.363   1.396   1.473   1.564   1.566
  1.627   1.707   1.754   1.808   1.958   1.980   1.981   1.998
  2.000   2.009   2.039   2.138   2.250   2.300   2.456   2.485
  2.488   2.508   2.761   2.799   2.847   2.860   3.011   3.016
  3.190   3.513   3.619   3.734   3.822   3.941   3.966   4.096
 --------------------------------------------------------------
 
          Ground-State Mulliken Net Atomic Charges

     Atom                 Charge (a.u.)
  ----------------------------------------
      1 P                     0.915565
      2 O                    -0.632262
      3 O                    -0.603052
      4 O                    -0.603052
      5 O                    -0.691661
      6 H                     0.352074
      7 H                     0.262389
  ----------------------------------------
  Sum of atomic charges =    -1.000000

 -----------------------------------------------------------------
                    Cartesian Multipole Moments
 -----------------------------------------------------------------
    Charge (ESU x 10^10)
                -4.8032
    Dipole Moment (Debye)
         X      -0.0000      Y      -2.7541      Z      -1.7900
       Tot       3.2847
    Quadrupole Moments (Debye-Ang)
        XX     -45.6345     XY      -0.0000     YY     -42.5882
        XZ      -0.0000     YZ     -11.3157     ZZ     -48.5601
    Octopole Moments (Debye-Ang^2)
       XXX      -0.0000    XXY     -14.1262    XYY       0.0000
       YYY     -63.5606    XXZ     -20.6413    XYZ       0.0000
       YYZ     -56.8530    XZZ       0.0000    YZZ     -48.2452
       ZZZ     -82.7753
    Hexadecapole Moments (Debye-Ang^3)
      XXXX    -167.7843   XXXY      -0.0000   XXYY     -58.6269
      XYYY      -0.0000   YYYY    -238.9519   XXXZ      -0.0000
      XXYZ     -52.4149   XYYZ      -0.0000   YYYZ    -226.7920
      XXZZ    -146.3570   XYZZ      -0.0000   YYZZ    -249.8987
      XZZZ      -0.0000   YZZZ    -246.8996   ZZZZ    -602.4737
 -----------------------------------------------------------------
 Calculating analytic gradient of the SCF energy
 Gradient of SCF Energy
            1           2           3           4           5           6
    1   0.0000000   0.0000000  -0.0005237   0.0005237   0.0000000  -0.0000000
    2   0.0049981  -0.0001538  -0.0016702  -0.0016702   0.0019359  -0.0034481
    3  -0.0043840   0.0018545   0.0011433   0.0011433  -0.0014717   0.0006700
            7
    1  -0.0000000
    2   0.0000083
    3   0.0010447
 Max gradient component =       4.998E-03
 RMS gradient           =       1.899E-03
 Gradient time:  CPU 3.20 s  wall 0.40 s
 Geometry Optimization Parameters
   NAtoms,    NIC,     NZ,  NCons,   NDum,   NFix, NCnnct, MaxDiis
        7      30       7       0       0       0       0       0

 Cartesian Hessian Update
 Hessian Updated using BFGS Update


** GEOMETRY OPTIMIZATION IN DELOCALIZED INTERNAL COORDINATES **
   Searching for a Minimum

   Optimization Cycle:   6

                       Coordinates (Angstroms)
     ATOM                X               Y               Z
      1  P         0.0000000000    0.0314550858    0.0247879675
      2  O         0.0000000000    0.1527783647    1.5336761651
      3  O         1.3087521964   -0.0656461798   -0.6997372297
      4  O        -1.3087521964   -0.0656461798   -0.6997372297
      5  O         0.0000000000    2.0240512638    3.5235793653
      6  H         0.0000000000    1.3738321732    2.7800983551
      7  H         0.0000000000    1.4477867731    4.2981569555
   Point Group: c1    Number of degrees of freedom:    15


   Energy is   -643.573038860

 Hessian Updated using BFGS Update

 10 Hessian modes will be used to form the next step
  Hessian Eigenvalues:
     0.010850    0.062048    0.160082    0.164188    0.254468    0.346853
     0.479053    0.513847    0.755532    0.773840

 Minimum Search - Taking Simple RFO Step
 Searching for Lamda that Minimizes Along All modes
 Value Taken    Lamda =  -0.00071657
 Step Taken.  Stepsize is  0.221273

                             Maximum     Tolerance    Cnvgd?
         Gradient           0.004440      0.000300      NO
         Displacement       0.133162      0.001200      NO
         Energy change     -0.001190      0.000001      NO


 New Cartesian Coordinates Obtained by Inverse Iteration

 Displacement from previous Coordinates is:  0.332721
 ----------------------------------------------------------------
             Standard Nuclear Orientation (Angstroms)
    I     Atom           X                Y                Z
 ----------------------------------------------------------------
    1      P       0.0000000000     0.0306289698     0.0401562527
    2      O       0.0000000000     0.2174986795     1.5428723630
    3      O       1.3084539469    -0.0901063688    -0.6810224869
    4      O      -1.3084539469    -0.0901063688    -0.6810224869
    5      O       0.0000000000     2.0206292891     3.5563654494
    6      H       0.0000000000     1.4652454489     2.7380109915
    7      H       0.0000000000     1.3448216514     4.2454642662
 ----------------------------------------------------------------
 Nuclear Repulsion Energy =   228.7505491143 hartrees
 There are       25 alpha and       25 beta electrons
 Applying Cartesian multipole field
    Component          Value
    ---------          -----
     (2,0,0)        1.00000E-10
     (0,2,0)        2.00000E-11
     (0,0,2)       -3.00000E-11
 Nucleus-field energy     =    -0.0000000040 hartrees
 Requested basis set is 6-31G(d,p)
 There are 27 shells and 89 basis functions
 A cutoff of  1.0D-11 yielded    319 shell pairs
 There are      3642 function pairs
 Smallest overlap matrix eigenvalue = 1.15E-02
 Guess MOs from SCF MO coefficient file

 -----------------------------------------------------------------------
  General SCF calculation program by
  Eric Jon Sundstrom, Paul Horn, Yuezhi Mao, Dmitri Zuev, Alec White,
  David Stuck, Shaama M.S., Shane Yost, Joonho Lee, David Small,
  Daniel Levine, Susi Lehtola, Hugh Burton, Evgeny Epifanovsky
 -----------------------------------------------------------------------
 Exchange:     0.2000 Hartree-Fock + 0.0800 Slater + 0.7200 B88
 Correlation:  0.1900 VWN1RPA + 0.8100 LYP
 Using SG-1 standard quadrature grid
 using 8 threads for integral computing
 -------------------------------------------------------
 OpenMP Integral computing Module                
 Release: version 1.0, May 2013, Q-Chem Inc. Pittsburgh 
 -------------------------------------------------------
 -------------------------------------------------------
 OpenMP BLAS3 based DFT computing Module                
 Release: version 1.0, May 2013, Q-Chem Inc. Pittsburgh 
 -------------------------------------------------------
 A restricted SCF calculation will be
 performed using DIIS
 SCF converges when DIIS error is below 1.0e-08
 ---------------------------------------
  Cycle       Energy         DIIS error
 ---------------------------------------
    1    -643.5687624201      1.78e-03  
    2    -643.5734543870      1.76e-04  
    3    -643.5734982274      5.89e-05  
    4    -643.5734996249      4.43e-05  
    5    -643.5735010418      7.39e-06  
    6    -643.5735010651      5.09e-06  
    7    -643.5735010835      1.09e-06  
    8    -643.5735010844      3.55e-07  
    9    -643.5735010845      6.38e-08  
   10    -643.5735010845      9.17e-09  Convergence criterion met
 ---------------------------------------
 SCF time:   CPU 5.47s  wall 0.00s 
 SCF   energy in the final basis set =     -643.5735010845
 Total energy in the final basis set =     -643.5735010845
 
 --------------------------------------------------------------
 
                    Orbital Energies (a.u.)
 --------------------------------------------------------------
 
 Alpha MOs
 -- Occupied --
-77.002 -18.962 -18.942 -18.936 -18.936  -6.456  -4.623  -4.617
 -4.617  -0.834  -0.820  -0.757  -0.755  -0.346  -0.307  -0.234
 -0.220  -0.216  -0.195  -0.137  -0.132  -0.122  -0.117  -0.111
 -0.071
 -- Virtual --
  0.171   0.197   0.242   0.361   0.375   0.421   0.481   0.493
  0.600   0.611   0.860   0.868   0.902   0.952   0.974   1.002
  1.028   1.050   1.110   1.146   1.165   1.189   1.191   1.217
  1.227   1.262   1.326   1.362   1.412   1.470   1.558   1.565
  1.590   1.711   1.761   1.808   1.957   1.979   1.980   1.997
  1.999   2.007   2.037   2.134   2.248   2.299   2.454   2.483
  2.490   2.512   2.749   2.798   2.853   2.857   3.010   3.015
  3.208   3.517   3.618   3.738   3.820   3.944   3.965   4.083
 --------------------------------------------------------------
 
          Ground-State Mulliken Net Atomic Charges

     Atom                 Charge (a.u.)
  ----------------------------------------
      1 P                     0.914658
      2 O                    -0.633477
      3 O                    -0.602277
      4 O                    -0.602277
      5 O                    -0.694394
      6 H                     0.353283
      7 H                     0.264484
  ----------------------------------------
  Sum of atomic charges =    -1.000000

 -----------------------------------------------------------------
                    Cartesian Multipole Moments
 -----------------------------------------------------------------
    Charge (ESU x 10^10)
                -4.8032
    Dipole Moment (Debye)
         X      -0.0000      Y      -2.8143      Z      -2.1568
       Tot       3.5457
    Quadrupole Moments (Debye-Ang)
        XX     -45.6182     XY       0.0000     YY     -42.6558
        XZ      -0.0000     YZ     -12.5435     ZZ     -50.5185
    Octopole Moments (Debye-Ang^2)
       XXX      -0.0000    XXY     -13.9626    XYY      -0.0000
       YYY     -63.5487    XXZ     -21.4452    XYZ      -0.0000
       YYZ     -59.0782    XZZ      -0.0000    YZZ     -54.1748
       ZZZ     -96.0859
    Hexadecapole Moments (Debye-Ang^3)
      XXXX    -167.6709   XXXY       0.0000   XXYY     -58.7400
      XYYY       0.0000   YYYY    -238.7763   XXXZ      -0.0000
      XXYZ     -53.5712   XYYZ      -0.0000   YYYZ    -232.6234
      XXZZ    -147.1259   XYZZ       0.0000   YYZZ    -262.7410
      XZZZ      -0.0000   YZZZ    -280.1830   ZZZZ    -663.5153
 -----------------------------------------------------------------
 Calculating analytic gradient of the SCF energy
 Gradient of SCF Energy
            1           2           3           4           5           6
    1  -0.0000000   0.0000000  -0.0005865   0.0005865   0.0000000   0.0000000
    2   0.0035989   0.0005108  -0.0012223  -0.0012223   0.0008133  -0.0024961
    3  -0.0042246   0.0034442   0.0010298   0.0010298   0.0001718  -0.0024824
            7
    1  -0.0000000
    2   0.0000178
    3   0.0010313
 Max gradient component =       4.225E-03
 RMS gradient           =       1.730E-03
 Gradient time:  CPU 3.20 s  wall 0.40 s
 Geometry Optimization Parameters
   NAtoms,    NIC,     NZ,  NCons,   NDum,   NFix, NCnnct, MaxDiis
        7      30       7       0       0       0       0       0

 Cartesian Hessian Update
 Hessian Updated using BFGS Update


** GEOMETRY OPTIMIZATION IN DELOCALIZED INTERNAL COORDINATES **
   Searching for a Minimum

   Optimization Cycle:   7

                       Coordinates (Angstroms)
     ATOM                X               Y               Z
      1  P         0.0000000000    0.0306289698    0.0401562527
      2  O         0.0000000000    0.2174986795    1.5428723630
      3  O         1.3084539469   -0.0901063688   -0.6810224869
      4  O        -1.3084539469   -0.0901063688   -0.6810224869
      5  O         0.0000000000    2.0206292891    3.5563654494
      6  H         0.0000000000    1.4652454489    2.7380109915
      7  H         0.0000000000    1.3448216514    4.2454642662
   Point Group: c1    Number of degrees of freedom:    15


   Energy is   -643.573501085

 Hessian Updated using BFGS Update

 10 Hessian modes will be used to form the next step
  Hessian Eigenvalues:
     0.010296    0.061026    0.160125    0.164515    0.253893    0.296334
     0.478462    0.508189    0.749841    0.768052

 Minimum Search - Taking Simple RFO Step
 Searching for Lamda that Minimizes Along All modes
 Value Taken    Lamda =  -0.00026067
 Step Taken.  Stepsize is  0.097167

                             Maximum     Tolerance    Cnvgd?
         Gradient           0.003327      0.000300      NO
         Displacement       0.054759      0.001200      NO
         Energy change     -0.000462      0.000001      NO


 New Cartesian Coordinates Obtained by Inverse Iteration

 Displacement from previous Coordinates is:  0.138118
 ----------------------------------------------------------------
             Standard Nuclear Orientation (Angstroms)
    I     Atom           X                Y                Z
 ----------------------------------------------------------------
    1      P       0.0000000000     0.0205817506     0.0442407569
    2      O       0.0000000000     0.2369776185     1.5418286136
    3      O       1.3080110504    -0.0987000965    -0.6790935894
    4      O      -1.3080110504    -0.0987000965    -0.6790935894
    5      O       0.0000000000     2.0229110520     3.5778322533
    6      H       0.0000000000     1.5106343657     2.7329558389
    7      H       0.0000000000     1.3049067072     4.2221540651
 ----------------------------------------------------------------
 Nuclear Repulsion Energy =   228.5901180211 hartrees
 There are       25 alpha and       25 beta electrons
 Applying Cartesian multipole field
    Component          Value
    ---------          -----
     (2,0,0)        1.00000E-10
     (0,2,0)        2.00000E-11
     (0,0,2)       -3.00000E-11
 Nucleus-field energy     =    -0.0000000041 hartrees
 Requested basis set is 6-31G(d,p)
 There are 27 shells and 89 basis functions
 A cutoff of  1.0D-11 yielded    320 shell pairs
 There are      3660 function pairs
 Smallest overlap matrix eigenvalue = 1.15E-02
 Guess MOs from SCF MO coefficient file

 -----------------------------------------------------------------------
  General SCF calculation program by
  Eric Jon Sundstrom, Paul Horn, Yuezhi Mao, Dmitri Zuev, Alec White,
  David Stuck, Shaama M.S., Shane Yost, Joonho Lee, David Small,
  Daniel Levine, Susi Lehtola, Hugh Burton, Evgeny Epifanovsky
 -----------------------------------------------------------------------
 Exchange:     0.2000 Hartree-Fock + 0.0800 Slater + 0.7200 B88
 Correlation:  0.1900 VWN1RPA + 0.8100 LYP
 Using SG-1 standard quadrature grid
 using 8 threads for integral computing
 -------------------------------------------------------
 OpenMP Integral computing Module                
 Release: version 1.0, May 2013, Q-Chem Inc. Pittsburgh 
 -------------------------------------------------------
 -------------------------------------------------------
 OpenMP BLAS3 based DFT computing Module                
 Release: version 1.0, May 2013, Q-Chem Inc. Pittsburgh 
 -------------------------------------------------------
 A restricted SCF calculation will be
 performed using DIIS
 SCF converges when DIIS error is below 1.0e-08
 ---------------------------------------
  Cycle       Energy         DIIS error
 ---------------------------------------
    1    -643.5727876966      7.85e-04  
    2    -643.5736731759      8.21e-05  
    3    -643.5736790464      6.91e-05  
    4    -643.5736822523      1.83e-05  
    5    -643.5736824761      6.12e-06  
    6    -643.5736824994      2.56e-06  
    7    -643.5736825038      8.82e-07  
    8    -643.5736825044      1.88e-07  
    9    -643.5736825044      2.53e-08  
   10    -643.5736825044      4.00e-09  Convergence criterion met
 ---------------------------------------
 SCF time:   CPU 5.47s  wall 1.00s 
 SCF   energy in the final basis set =     -643.5736825044
 Total energy in the final basis set =     -643.5736825044
 
 --------------------------------------------------------------
 
                    Orbital Energies (a.u.)
 --------------------------------------------------------------
 
 Alpha MOs
 -- Occupied --
-77.002 -18.963 -18.942 -18.936 -18.936  -6.456  -4.622  -4.617
 -4.617  -0.834  -0.821  -0.757  -0.754  -0.345  -0.308  -0.235
 -0.220  -0.216  -0.196  -0.137  -0.132  -0.123  -0.117  -0.111
 -0.071
 -- Virtual --
  0.172   0.196   0.243   0.360   0.375   0.418   0.479   0.493
  0.601   0.610   0.860   0.868   0.894   0.953   0.974   1.002
  1.028   1.049   1.115   1.147   1.166   1.186   1.192   1.218
  1.227   1.264   1.325   1.362   1.413   1.470   1.549   1.565
  1.577   1.711   1.756   1.805   1.957   1.979   1.981   1.997
  1.999   2.008   2.038   2.136   2.250   2.299   2.448   2.483
  2.492   2.518   2.727   2.794   2.856   2.858   3.010   3.016
  3.213   3.516   3.617   3.742   3.818   3.936   3.965   4.067
 --------------------------------------------------------------
 
          Ground-State Mulliken Net Atomic Charges

     Atom                 Charge (a.u.)
  ----------------------------------------
      1 P                     0.913289
      2 O                    -0.632929
      3 O                    -0.602876
      4 O                    -0.602876
      5 O                    -0.692209
      6 H                     0.351075
      7 H                     0.266524
  ----------------------------------------
  Sum of atomic charges =    -1.000000

 -----------------------------------------------------------------
                    Cartesian Multipole Moments
 -----------------------------------------------------------------
    Charge (ESU x 10^10)
                -4.8032
    Dipole Moment (Debye)
         X      -0.0000      Y      -2.8292      Z      -2.2328
       Tot       3.6042
    Quadrupole Moments (Debye-Ang)
        XX     -45.6243     XY       0.0000     YY     -42.6069
        XZ      -0.0000     YZ     -12.9270     ZZ     -51.2565
    Octopole Moments (Debye-Ang^2)
       XXX      -0.0000    XXY     -13.7622    XYY      -0.0000
       YYY     -63.0282    XXZ     -21.6367    XYZ       0.0000
       YYZ     -59.6826    XZZ      -0.0000    YZZ     -56.2730
       ZZZ    -101.1935
    Hexadecapole Moments (Debye-Ang^3)
      XXXX    -167.6382   XXXY       0.0000   XXYY     -58.8787
      XYYY       0.0000   YYYY    -238.7076   XXXZ      -0.0000
      XXYZ     -54.1516   XYYZ      -0.0000   YYYZ    -234.7207
      XXZZ    -147.8192   XYZZ       0.0000   YYZZ    -267.9640
      XZZZ      -0.0000   YZZZ    -294.0748   ZZZZ    -691.7500
 -----------------------------------------------------------------
 Calculating analytic gradient of the SCF energy
 Gradient of SCF Energy
            1           2           3           4           5           6
    1  -0.0000000   0.0000000  -0.0002993   0.0002993   0.0000000   0.0000000
    2   0.0009196   0.0009335  -0.0003084  -0.0003084   0.0006806  -0.0020150
    3  -0.0019273   0.0023647   0.0004220   0.0004220   0.0011786  -0.0025921
            7
    1  -0.0000000
    2   0.0000982
    3   0.0001321
 Max gradient component =       2.592E-03
 RMS gradient           =       1.078E-03
 Gradient time:  CPU 3.20 s  wall 0.40 s
 Geometry Optimization Parameters
   NAtoms,    NIC,     NZ,  NCons,   NDum,   NFix, NCnnct, MaxDiis
        7      30       7       0       0       0       0       0

 Cartesian Hessian Update
 Hessian Updated using BFGS Update


** GEOMETRY OPTIMIZATION IN DELOCALIZED INTERNAL COORDINATES **
   Searching for a Minimum

   Optimization Cycle:   8

                       Coordinates (Angstroms)
     ATOM                X               Y               Z
      1  P         0.0000000000    0.0205817506    0.0442407569
      2  O         0.0000000000    0.2369776185    1.5418286136
      3  O         1.3080110504   -0.0987000965   -0.6790935894
      4  O        -1.3080110504   -0.0987000965   -0.6790935894
      5  O         0.0000000000    2.0229110520    3.5778322533
      6  H         0.0000000000    1.5106343657    2.7329558389
      7  H         0.0000000000    1.3049067072    4.2221540651
   Point Group: c1    Number of degrees of freedom:    15


   Energy is   -643.573682504

 Hessian Updated using BFGS Update

 10 Hessian modes will be used to form the next step
  Hessian Eigenvalues:
     0.010583    0.038110    0.159030    0.164913    0.254621    0.289524
     0.475376    0.505864    0.739612    0.765295

 Minimum Search - Taking Simple RFO Step
 Searching for Lamda that Minimizes Along All modes
 Value Taken    Lamda =  -0.00014208
 Step Taken.  Stepsize is  0.070550

                             Maximum     Tolerance    Cnvgd?
         Gradient           0.002009      0.000300      NO
         Displacement       0.042981      0.001200      NO
         Energy change     -0.000181      0.000001      NO


 New Cartesian Coordinates Obtained by Inverse Iteration

 Displacement from previous Coordinates is:  0.081692
 ----------------------------------------------------------------
             Standard Nuclear Orientation (Angstroms)
    I     Atom           X                Y                Z
 ----------------------------------------------------------------
    1      P       0.0000000000     0.0100537587     0.0398987956
    2      O       0.0000000000     0.2401523507     1.5339020189
    3      O       1.3076122877    -0.1047884637    -0.6861734513
    4      O      -1.3076122877    -0.1047884637    -0.6861734513
    5      O       0.0000000000     2.0284936682     3.5974291464
    6      H       0.0000000000     1.5385453336     2.7426547680
    7      H       0.0000000000     1.2909431171     4.2192865228
 ----------------------------------------------------------------
 Nuclear Repulsion Energy =   228.2403734100 hartrees
 There are       25 alpha and       25 beta electrons
 Applying Cartesian multipole field
    Component          Value
    ---------          -----
     (2,0,0)        1.00000E-10
     (0,2,0)        2.00000E-11
     (0,0,2)       -3.00000E-11
 Nucleus-field energy     =    -0.0000000042 hartrees
 Requested basis set is 6-31G(d,p)
 There are 27 shells and 89 basis functions
 A cutoff of  1.0D-11 yielded    320 shell pairs
 There are      3660 function pairs
 Smallest overlap matrix eigenvalue = 1.15E-02
 Guess MOs from SCF MO coefficient file

 -----------------------------------------------------------------------
  General SCF calculation program by
  Eric Jon Sundstrom, Paul Horn, Yuezhi Mao, Dmitri Zuev, Alec White,
  David Stuck, Shaama M.S., Shane Yost, Joonho Lee, David Small,
  Daniel Levine, Susi Lehtola, Hugh Burton, Evgeny Epifanovsky
 -----------------------------------------------------------------------
 Exchange:     0.2000 Hartree-Fock + 0.0800 Slater + 0.7200 B88
 Correlation:  0.1900 VWN1RPA + 0.8100 LYP
 Using SG-1 standard quadrature grid
 using 8 threads for integral computing
 -------------------------------------------------------
 OpenMP Integral computing Module                
 Release: version 1.0, May 2013, Q-Chem Inc. Pittsburgh 
 -------------------------------------------------------
 -------------------------------------------------------
 OpenMP BLAS3 based DFT computing Module                
 Release: version 1.0, May 2013, Q-Chem Inc. Pittsburgh 
 -------------------------------------------------------
 A restricted SCF calculation will be
 performed using DIIS
 SCF converges when DIIS error is below 1.0e-08
 ---------------------------------------
  Cycle       Energy         DIIS error
 ---------------------------------------
    1    -643.5735334867      4.10e-04  
    2    -643.5737666432      6.78e-05  
    3    -643.5737646112      9.51e-05  
    4    -643.5737709098      1.76e-05  
    5    -643.5737710822      9.04e-06  
    6    -643.5737711423      1.96e-06  
    7    -643.5737711449      8.05e-07  
    8    -643.5737711453      9.70e-08  
    9    -643.5737711453      1.32e-08  
   10    -643.5737711453      2.66e-09  Convergence criterion met
 ---------------------------------------
 SCF time:   CPU 5.46s  wall 1.00s 
 SCF   energy in the final basis set =     -643.5737711453
 Total energy in the final basis set =     -643.5737711453
 
 --------------------------------------------------------------
 
                    Orbital Energies (a.u.)
 --------------------------------------------------------------
 
 Alpha MOs
 -- Occupied --
-77.001 -18.966 -18.942 -18.935 -18.935  -6.456  -4.622  -4.616
 -4.616  -0.834  -0.824  -0.757  -0.754  -0.345  -0.308  -0.235
 -0.220  -0.216  -0.198  -0.137  -0.132  -0.125  -0.117  -0.110
 -0.071
 -- Virtual --
  0.172   0.197   0.242   0.358   0.375   0.416   0.477   0.493
  0.602   0.610   0.861   0.868   0.891   0.952   0.975   1.002
  1.029   1.047   1.115   1.147   1.165   1.185   1.192   1.217
  1.228   1.264   1.323   1.362   1.407   1.470   1.543   1.566
  1.573   1.709   1.749   1.802   1.957   1.979   1.983   1.997
  2.001   2.008   2.039   2.141   2.253   2.298   2.442   2.484
  2.492   2.520   2.707   2.790   2.857   2.859   3.010   3.020
  3.211   3.513   3.618   3.743   3.816   3.928   3.965   4.057
 --------------------------------------------------------------
 
          Ground-State Mulliken Net Atomic Charges

     Atom                 Charge (a.u.)
  ----------------------------------------
      1 P                     0.911648
      2 O                    -0.631752
      3 O                    -0.603872
      4 O                    -0.603872
      5 O                    -0.688865
      6 H                     0.348223
      7 H                     0.268491
  ----------------------------------------
  Sum of atomic charges =    -1.000000

 -----------------------------------------------------------------
                    Cartesian Multipole Moments
 -----------------------------------------------------------------
    Charge (ESU x 10^10)
                -4.8032
    Dipole Moment (Debye)
         X      -0.0000      Y      -2.8064      Z      -2.1875
       Tot       3.5582
    Quadrupole Moments (Debye-Ang)
        XX     -45.6382     XY      -0.0000     YY     -42.5439
        XZ       0.0000     YZ     -13.0231     ZZ     -51.4717
    Octopole Moments (Debye-Ang^2)
       XXX      -0.0000    XXY     -13.5384    XYY      -0.0000
       YYY     -62.4684    XXZ     -21.4909    XYZ       0.0000
       YYZ     -59.7397    XZZ      -0.0000    YZZ     -56.9358
       ZZZ    -102.4376
    Hexadecapole Moments (Debye-Ang^3)
      XXXX    -167.6478   XXXY      -0.0000   XXYY     -59.0553
      XYYY      -0.0000   YYYY    -239.2899   XXXZ       0.0000
      XXYZ     -54.6304   XYYZ      -0.0000   YYYZ    -236.2848
      XXZZ    -148.6593   XYZZ      -0.0000   YYZZ    -270.9857
      XZZZ       0.0000   YZZZ    -300.8056   ZZZZ    -705.3376
 -----------------------------------------------------------------
 Calculating analytic gradient of the SCF energy
 Gradient of SCF Energy
            1           2           3           4           5           6
    1  -0.0000000   0.0000000  -0.0000035   0.0000035   0.0000000  -0.0000000
    2  -0.0008875   0.0007422   0.0003365   0.0003365   0.0005785  -0.0010789
    3   0.0003759   0.0004773  -0.0001046  -0.0001046   0.0006000  -0.0009707
            7
    1  -0.0000000
    2  -0.0000271
    3  -0.0002733
 Max gradient component =       1.079E-03
 RMS gradient           =       4.797E-04
[...]
    Component          Value
    ---------          -----
     (2,0,0)        1.00000E-10
     (0,2,0)        2.00000E-11
     (0,0,2)       -3.00000E-11
 Nucleus-field energy     =    -0.0000000043 hartrees
 Requested basis set is 6-31G(d,p)
 There are 27 shells and 89 basis functions
 A cutoff of  1.0D-11 yielded    320 shell pairs
 There are      3660 function pairs
 Smallest overlap matrix eigenvalue = 1.15E-02
 Guess MOs from SCF MO coefficient file

 -----------------------------------------------------------------------
  General SCF calculation program by
  Eric Jon Sundstrom, Paul Horn, Yuezhi Mao, Dmitri Zuev, Alec White,
  David Stuck, Shaama M.S., Shane Yost, Joonho Lee, David Small,
  Daniel Levine, Susi Lehtola, Hugh Burton, Evgeny Epifanovsky
 -----------------------------------------------------------------------
 Exchange:     0.2000 Hartree-Fock + 0.0800 Slater + 0.7200 B88
 Correlation:  0.1900 VWN1RPA + 0.8100 LYP
 Using SG-1 standard quadrature grid
 using 8 threads for integral computing
 -------------------------------------------------------
 OpenMP Integral computing Module                
 Release: version 1.0, May 2013, Q-Chem Inc. Pittsburgh 
 -------------------------------------------------------
 -------------------------------------------------------
 OpenMP BLAS3 based DFT computing Module                
 Release: version 1.0, May 2013, Q-Chem Inc. Pittsburgh 
 -------------------------------------------------------
 A restricted SCF calculation will be
 performed using DIIS
 SCF converges when DIIS error is below 1.0e-08
 ---------------------------------------
  Cycle       Energy         DIIS error
 ---------------------------------------
    1    -643.5737995466      3.66e-05  
    2    -643.5738019164      1.40e-05  
    3    -643.5738015770      2.56e-05  
    4    -643.5738020787      1.38e-06  
    5    -643.5738020805      2.72e-07  
    6    -643.5738020805      1.55e-07  
    7    -643.5738020805      1.99e-08  
    8    -643.5738020805      1.99e-09  Convergence criterion met
 ---------------------------------------
 SCF time:   CPU 4.38s  wall 0.00s 
 SCF   energy in the final basis set =     -643.5738020805
 Total energy in the final basis set =     -643.5738020805
 
 --------------------------------------------------------------
 
                    Orbital Energies (a.u.)
 --------------------------------------------------------------
 
 Alpha MOs
 -- Occupied --
-77.000 -18.968 -18.941 -18.935 -18.934  -6.455  -4.621  -4.616
 -4.615  -0.833  -0.826  -0.756  -0.753  -0.346  -0.308  -0.234
 -0.219  -0.215  -0.200  -0.136  -0.131  -0.127  -0.116  -0.110
 -0.070
 -- Virtual --
  0.172   0.197   0.241   0.356   0.375   0.414   0.477   0.491
  0.603   0.611   0.862   0.868   0.891   0.951   0.975   1.003
  1.028   1.046   1.115   1.148   1.164   1.184   1.193   1.216
  1.228   1.263   1.320   1.363   1.402   1.471   1.537   1.567
  1.571   1.707   1.745   1.800   1.958   1.980   1.984   1.998
  2.002   2.009   2.040   2.145   2.256   2.299   2.437   2.485
  2.493   2.516   2.691   2.789   2.854   2.860   3.010   3.021
  3.208   3.510   3.618   3.742   3.815   3.922   3.965   4.050
 --------------------------------------------------------------
 
          Ground-State Mulliken Net Atomic Charges

     Atom                 Charge (a.u.)
  ----------------------------------------
      1 P                     0.910338
      2 O                    -0.631346
      3 O                    -0.604449
      4 O                    -0.604449
      5 O                    -0.686576
      6 H                     0.346073
      7 H                     0.270409
  ----------------------------------------
  Sum of atomic charges =    -1.000000

 -----------------------------------------------------------------
                    Cartesian Multipole Moments
 -----------------------------------------------------------------
    Charge (ESU x 10^10)
                -4.8032
    Dipole Moment (Debye)
         X      -0.0000      Y      -2.7355      Z      -2.1444
       Tot       3.4759
    Quadrupole Moments (Debye-Ang)
        XX     -45.6466     XY       0.0000     YY     -42.4822
        XZ       0.0000     YZ     -13.1254     ZZ     -51.6166
    Octopole Moments (Debye-Ang^2)
       XXX      -0.0000    XXY     -13.3468    XYY      -0.0000
       YYY     -61.9911    XXZ     -21.2518    XYZ      -0.0000
       YYZ     -59.6730    XZZ      -0.0000    YZZ     -57.4764
       ZZZ    -102.9037
    Hexadecapole Moments (Debye-Ang^3)
      XXXX    -167.6065   XXXY       0.0000   XXYY     -59.2107
      XYYY       0.0000   YYYY    -239.7670   XXXZ       0.0000
      XXYZ     -55.1727   XYYZ       0.0000   YYYZ    -237.9071
      XXZZ    -149.6305   XYZZ       0.0000   YYZZ    -273.7136
      XZZZ       0.0000   YZZZ    -306.7281   ZZZZ    -716.3989
 -----------------------------------------------------------------
 Calculating analytic gradient of the SCF energy
 Gradient of SCF Energy
            1           2           3           4           5           6
    1  -0.0000000  -0.0000000  -0.0001676   0.0001676   0.0000000  -0.0000000
    2   0.0001688  -0.0001990  -0.0000383  -0.0000383   0.0000629   0.0001034
    3  -0.0000560   0.0002826  -0.0000756  -0.0000756  -0.0000706  -0.0001140
            7
    1  -0.0000000
    2  -0.0000594
    3   0.0001093
 Max gradient component =       2.826E-04
 RMS gradient           =       1.133E-04
 Gradient time:  CPU 3.17 s  wall 0.40 s
 Geometry Optimization Parameters
   NAtoms,    NIC,     NZ,  NCons,   NDum,   NFix, NCnnct, MaxDiis
        7      30       7       0       0       0       0       0

 Cartesian Hessian Update
 Hessian Updated using BFGS Update


** GEOMETRY OPTIMIZATION IN CARTESIAN COORDINATES **
   Searching for a Minimum

   Optimization Cycle:  14

                       Coordinates (Angstroms)
     ATOM                X               Y               Z
      1  P         0.0000000000    0.0080765963    0.0304580470
      2  O         0.0000000000    0.2456581357    1.5233451961
      3  O         1.3071215192   -0.1161480965   -0.6949824671
      4  O        -1.3071215192   -0.1161480965   -0.6949824670
      5  O         0.0000000000    2.0322331851    3.6182395170
      6  H         0.0000000000    1.5633487143    2.7542375499
      7  H         0.0000000000    1.2815908625    4.2245089732
   Point Group: c1    Number of degrees of freedom:    15


   Energy is   -643.573802081


 Translations and Rotations Projected Out of Hessian

 10 Hessian modes will be used to form the next step
  Hessian Eigenvalues:
     0.005938    0.016964    0.090265    0.238832    0.575738    0.916030
     0.964482    1.115455    1.176017    1.466659

 Minimum Search - Taking Simple RFO Step
 Searching for Lamda that Minimizes Along All modes
 Value Taken    Lamda =   0.00000000
 Step Taken.  Stepsize is  0.002916

                             Maximum     Tolerance    Cnvgd?
         Gradient           0.000283      0.000300     YES
         Displacement       0.001307      0.001200      NO
         Energy change     -0.000001      0.000001      NO

 ----------------------------------------------------------------
             Standard Nuclear Orientation (Angstroms)
    I     Atom           X                Y                Z
 ----------------------------------------------------------------
    1      P       0.0000000000     0.0082048188     0.0302222701
    2      O       0.0000000000     0.2462685775     1.5229532695
    3      O       1.3072654495    -0.1165802415    -0.6949142631
    4      O      -1.3072654495    -0.1165802415    -0.6949142630
    5      O       0.0000000000     2.0322823197     3.6188211633
    6      H       0.0000000000     1.5640402982     2.7544730975
    7      H       0.0000000000     1.2809757698     4.2241830749
 ----------------------------------------------------------------
 Nuclear Repulsion Energy =   227.8465277033 hartrees
 There are       25 alpha and       25 beta electrons
 Applying Cartesian multipole field
    Component          Value
    ---------          -----
     (2,0,0)        1.00000E-10
     (0,2,0)        2.00000E-11
     (0,0,2)       -3.00000E-11
 Nucleus-field energy     =    -0.0000000043 hartrees
 Requested basis set is 6-31G(d,p)
 There are 27 shells and 89 basis functions
 A cutoff of  1.0D-11 yielded    320 shell pairs
 There are      3660 function pairs
 Smallest overlap matrix eigenvalue = 1.15E-02
 Guess MOs from SCF MO coefficient file

 -----------------------------------------------------------------------
  General SCF calculation program by
  Eric Jon Sundstrom, Paul Horn, Yuezhi Mao, Dmitri Zuev, Alec White,
  David Stuck, Shaama M.S., Shane Yost, Joonho Lee, David Small,
  Daniel Levine, Susi Lehtola, Hugh Burton, Evgeny Epifanovsky
 -----------------------------------------------------------------------
 Exchange:     0.2000 Hartree-Fock + 0.0800 Slater + 0.7200 B88
 Correlation:  0.1900 VWN1RPA + 0.8100 LYP
 Using SG-1 standard quadrature grid
 using 8 threads for integral computing
 -------------------------------------------------------
 OpenMP Integral computing Module                
 Release: version 1.0, May 2013, Q-Chem Inc. Pittsburgh 
 -------------------------------------------------------
 -------------------------------------------------------
 OpenMP BLAS3 based DFT computing Module                
 Release: version 1.0, May 2013, Q-Chem Inc. Pittsburgh 
 -------------------------------------------------------
 A restricted SCF calculation will be
 performed using DIIS
 SCF converges when DIIS error is below 1.0e-08
 ---------------------------------------
  Cycle       Energy         DIIS error
 ---------------------------------------
    1    -643.5738019536      1.68e-05  
    2    -643.5738024113      2.04e-06  
    3    -643.5738024132      2.30e-06  
    4    -643.5738024168      7.25e-07  
    5    -643.5738024171      3.25e-07  
    6    -643.5738024172      5.34e-08  
    7    -643.5738024172      2.10e-08  
    8    -643.5738024172      4.77e-09  Convergence criterion met
 ---------------------------------------
 SCF time:   CPU 4.39s  wall 0.00s 
 SCF   energy in the final basis set =     -643.5738024172
 Total energy in the final basis set =     -643.5738024172
 
 --------------------------------------------------------------
 
                    Orbital Energies (a.u.)
 --------------------------------------------------------------
 
 Alpha MOs
 -- Occupied --
-77.000 -18.968 -18.941 -18.935 -18.935  -6.455  -4.621  -4.616
 -4.615  -0.833  -0.826  -0.756  -0.753  -0.346  -0.309  -0.234
 -0.219  -0.215  -0.200  -0.136  -0.131  -0.127  -0.116  -0.110
 -0.070
 -- Virtual --
  0.172   0.197   0.241   0.356   0.375   0.414   0.477   0.491
  0.603   0.611   0.862   0.868   0.891   0.951   0.975   1.003
  1.028   1.046   1.115   1.148   1.164   1.184   1.193   1.216
  1.228   1.263   1.321   1.363   1.402   1.471   1.536   1.567
  1.571   1.707   1.745   1.800   1.958   1.980   1.984   1.998
  2.002   2.009   2.040   2.145   2.256   2.299   2.437   2.485
  2.493   2.517   2.691   2.789   2.854   2.860   3.010   3.022
  3.208   3.510   3.618   3.742   3.815   3.922   3.965   4.050
 --------------------------------------------------------------
 
          Ground-State Mulliken Net Atomic Charges

     Atom                 Charge (a.u.)
  ----------------------------------------
      1 P                     0.910304
      2 O                    -0.631293
      3 O                    -0.604471
      4 O                    -0.604471
      5 O                    -0.686518
      6 H                     0.346012
      7 H                     0.270437
  ----------------------------------------
  Sum of atomic charges =    -1.000000

 -----------------------------------------------------------------
                    Cartesian Multipole Moments
 -----------------------------------------------------------------
    Charge (ESU x 10^10)
                -4.8032
    Dipole Moment (Debye)
         X      -0.0000      Y      -2.7342      Z      -2.1460
       Tot       3.4758
    Quadrupole Moments (Debye-Ang)
        XX     -45.6483     XY       0.0000     YY     -42.4819
        XZ       0.0000     YZ     -13.1346     ZZ     -51.6275
    Octopole Moments (Debye-Ang^2)
       XXX      -0.0000    XXY     -13.3437    XYY      -0.0000
       YYY     -61.9847    XXZ     -21.2494    XYZ      -0.0000
       YYZ     -59.6796    XZZ      -0.0000    YZZ     -57.5181
       ZZZ    -102.9834
    Hexadecapole Moments (Debye-Ang^3)
      XXXX    -167.6356   XXXY       0.0000   XXYY     -59.2199
      XYYY       0.0000   YYYY    -239.7715   XXXZ       0.0000
      XXYZ     -55.1908   XYYZ       0.0000   YYYZ    -237.9601
      XXZZ    -149.6521   XYZZ       0.0000   YYZZ    -273.8111
      XZZZ       0.0000   YZZZ    -307.0151   ZZZZ    -716.9597
 -----------------------------------------------------------------
 Calculating analytic gradient of the SCF energy
 Gradient of SCF Energy
            1           2           3           4           5           6
    1  -0.0000000  -0.0000000  -0.0001167   0.0001167   0.0000000  -0.0000000
    2   0.0002418  -0.0002451  -0.0000569  -0.0000569   0.0000664   0.0000788
    3  -0.0000356   0.0001905  -0.0000450  -0.0000450  -0.0000074  -0.0000984
            7
    1  -0.0000000
    2  -0.0000281
    3   0.0000410
 Max gradient component =       2.451E-04
 RMS gradient           =       1.016E-04
 Gradient time:  CPU 3.18 s  wall 0.40 s
 Geometry Optimization Parameters
   NAtoms,    NIC,     NZ,  NCons,   NDum,   NFix, NCnnct, MaxDiis
        7      30       7       0       0       0       0       0

 Cartesian Hessian Update
 Hessian Updated using BFGS Update


** GEOMETRY OPTIMIZATION IN CARTESIAN COORDINATES **
   Searching for a Minimum

   Optimization Cycle:  15

                       Coordinates (Angstroms)
     ATOM                X               Y               Z
      1  P         0.0000000000    0.0082048188    0.0302222701
      2  O         0.0000000000    0.2462685775    1.5229532695
      3  O         1.3072654495   -0.1165802415   -0.6949142631
      4  O        -1.3072654495   -0.1165802415   -0.6949142630
      5  O         0.0000000000    2.0322823197    3.6188211633
      6  H         0.0000000000    1.5640402982    2.7544730975
      7  H         0.0000000000    1.2809757698    4.2241830749
   Point Group: c1    Number of degrees of freedom:    15


   Energy is   -643.573802417


 Translations and Rotations Projected Out of Hessian

 10 Hessian modes will be used to form the next step
  Hessian Eigenvalues:
     0.004409    0.015839    0.093721    0.188158    0.428316    0.812054
     0.964377    1.058050    1.281217    1.305424

 Minimum Search - Taking Simple RFO Step
 Searching for Lamda that Minimizes Along All modes
 Value Taken    Lamda =   0.00000000
 Step Taken.  Stepsize is  0.009143

                             Maximum     Tolerance    Cnvgd?
         Gradient           0.000245      0.000300     YES
         Displacement       0.004549      0.001200      NO
         Energy change     -0.000000      0.000001     YES


                       Distance Matrix (Angstroms)
             P (  1)   O (  2)   O (  3)   O (  4)   O (  5)   H (  6)
   O (  2)  1.511595
   O (  3)  1.500112  2.599911
   O (  4)  1.500112  2.599911  2.614531
   O (  5)  4.120065  2.753635  4.993482  4.993482
   H (  6)  3.137223  1.803653  4.053604  4.053604  0.983030
   H (  7)  4.382836  2.892622  5.278222  5.278222  0.964844  1.496721

 
 Final energy is   -643.573802417177     


 ******************************
 **  OPTIMIZATION CONVERGED  **
 ******************************

                       Coordinates (Angstroms)
     ATOM                X               Y               Z
      1  P         0.0000000000    0.0082048188    0.0302222701
      2  O         0.0000000000    0.2462685775    1.5229532695
      3  O         1.3072654495   -0.1165802415   -0.6949142631
      4  O        -1.3072654495   -0.1165802415   -0.6949142630
      5  O         0.0000000000    2.0322823197    3.6188211633
      6  H         0.0000000000    1.5640402982    2.7544730975
      7  H         0.0000000000    1.2809757698    4.2241830749

Z-matrix Print:
$molecule
-1 1
P 
O  1 1.500112
O  1 1.500112 2 121.253987
O  1 1.511595 2 119.370581 3 -179.193571 0
H  4 1.803653 1 142.123550 2 -90.395538 0
O  5 0.983030 4 161.507882 1 -180.000000 0
H  6 0.964844 5 100.414306 4 -0.000000 0
$end

 
 --------------------------------------------------------------
 
                    Orbital Energies (a.u.)
 --------------------------------------------------------------
 
 Alpha MOs
 -- Occupied --
-77.000 -18.968 -18.941 -18.935 -18.935  -6.455  -4.621  -4.616
 -4.615  -0.833  -0.826  -0.756  -0.753  -0.346  -0.309  -0.234
 -0.219  -0.215  -0.200  -0.136  -0.131  -0.127  -0.116  -0.110
 -0.070
 -- Virtual --
  0.172   0.197   0.241   0.356   0.375   0.414   0.477   0.491
  0.603   0.611   0.862   0.868   0.891   0.951   0.975   1.003
  1.028   1.046   1.115   1.148   1.164   1.184   1.193   1.216
  1.228   1.263   1.321   1.363   1.402   1.471   1.536   1.567
  1.571   1.707   1.745   1.800   1.958   1.980   1.984   1.998
  2.002   2.009   2.040   2.145   2.256   2.299   2.437   2.485
  2.493   2.517   2.691   2.789   2.854   2.860   3.010   3.022
  3.208   3.510   3.618   3.742   3.815   3.922   3.965   4.050
 --------------------------------------------------------------
 
          Ground-State Mulliken Net Atomic Charges

     Atom                 Charge (a.u.)
  ----------------------------------------
      1 P                     0.910304
      2 O                    -0.631293
      3 O                    -0.604471
      4 O                    -0.604471
      5 O                    -0.686518
      6 H                     0.346012
      7 H                     0.270437
  ----------------------------------------
  Sum of atomic charges =    -1.000000

 -----------------------------------------------------------------
                    Cartesian Multipole Moments
 -----------------------------------------------------------------
    Charge (ESU x 10^10)
                -4.8032
    Dipole Moment (Debye)
         X      -0.0000      Y      -2.7342      Z      -2.1460
       Tot       3.4758
    Quadrupole Moments (Debye-Ang)
        XX     -45.6483     XY       0.0000     YY     -42.4819
        XZ       0.0000     YZ     -13.1346     ZZ     -51.6275
    Octopole Moments (Debye-Ang^2)
       XXX      -0.0000    XXY     -13.3437    XYY      -0.0000
       YYY     -61.9847    XXZ     -21.2494    XYZ      -0.0000
       YYZ     -59.6796    XZZ      -0.0000    YZZ     -57.5181
       ZZZ    -102.9834
    Hexadecapole Moments (Debye-Ang^3)
      XXXX    -167.6356   XXXY       0.0000   XXYY     -59.2199
      XYYY       0.0000   YYYY    -239.7715   XXXZ       0.0000
      XXYZ     -55.1908   XYYZ       0.0000   YYYZ    -237.9601
      XXZZ    -149.6521   XYZZ       0.0000   YYZZ    -273.8111
      XZZZ       0.0000   YZZZ    -307.0151   ZZZZ    -716.9597
 -----------------------------------------------------------------
Archival summary:
1\1\node1\OPT\ProcedureUnspecified\6-31G**\142(1-,1)\songzl\ThuApr613:50:172023ThuApr613:50:172023\0\\#,OPT,ProcedureUnspecified,6-31G**,\\-1,1\P\O,1,1.50011\O,1,1.50011,2,121.254\O,1,1.5116,2,119.371,3,-179.194,0\H,4,1.80365,1,142.124,2,-90.3955,0\O,5,0.98303,4,161.508,1,-180,0\H,6,0.964844,5,100.414,4,-0,0\\\@

 Total job time:  17.37s(wall), 137.35s(cpu) 
 Thu Apr  6 13:50:17 2023

        *************************************************************
        *                                                           *
        *  Thank you very much for using Q-Chem.  Have a nice day.  *
        *                                                           *
        *************************************************************


