
Running Job 1 of 1 qchem_batch_opt.inp
qchem qchem_batch_opt.inp_31315.0 /tmp/songzl/qchem_baker_set/qchem31315/ 1
/apps/apps/qchem/qc51/exe/qcprog.exe_s qchem_batch_opt.inp_31315.0 /tmp/songzl/qchem_baker_set/qchem31315/
Check license passed

                  Welcome to Q-Chem
     A Quantum Leap Into The Future Of Chemistry


 Q-Chem 5.1, Q-Chem, Inc., Pleasanton, CA (2018)

 Yihan Shao,  Zhengting Gan,  E. Epifanovsky,  A. T. B. Gilbert,  M. Wormit,  
 J. Kussmann,  A. W. Lange,  A. Behn,  Jia Deng,  Xintian Feng,  D. Ghosh,  
 M. Goldey,  P. R. Horn,  L. D. Jacobson,  I. Kaliman,  T. Kus,  A. Landau,  
 Jie Liu,  E. I. Proynov,  R. M. Richard,  R. P. Steele,  E. J. Sundstrom,  
 H. L. Woodcock III,  P. M. Zimmerman,  D. Zuev,  B. Albrecht,  E. Alguire,  
 S. A. Baeppler,  D. Barton,  Z. Benda,  Y. A. Bernard,  E. J. Berquist,  
 K. B. Bravaya,  H. Burton,  D. Casanova,  Chun-Min Chang,  Yunqing Chen,  
 A. Chien,  K. D. Closser,  M. P. Coons,  S. Coriani,  S. Dasgupta,  
 A. L. Dempwolff,  M. Diedenhofen,  Hainam Do,  R. G. Edgar,  Po-Tung Fang,  
 S. Faraji,  S. Fatehi,  Qingguo Feng,  K. D. Fenk,  J. Fosso-Tande,  
 Qinghui Ge,  A. Ghysels,  G. Gidofalvi,  J. Gomes,  J. Gonthier,  A. Gunina,  
 D. Hait,  M. W. D. Hanson-Heine,  P. H. P. Harbach,  A. W. Hauser,  
 J. E. Herr,  E. G. Hohenstein,  Z. C. Holden,  Kerwin Hui,  B. C. Huynh,  
 T.-C. Jagau,  Hyunjun Ji,  B. Kaduk,  K. Khistyaev,  Jaehoon Kim,  
 P. Klunzinger,  K. Koh,  D. Kosenkov,  L. Koulias,  T. Kowalczyk,  
 C. M. Krauter,  A. Kunitsa,  Ka Un Lao,  A. Laurent,  K. V. Lawler,  
 Joonho Lee,  D. Lefrancois,  S. Lehtola,  D. S. Levine,  Yi-Pei Li,  
 You-Sheng Lin,  Fenglai Liu,  E. Livshits,  A. Luenser,  P. Manohar,  
 E. Mansoor,  S. F. Manzer,  Shan-Ping Mao,  Yuezhi Mao,  N. Mardirossian,  
 A. V. Marenich,  T. Markovich,  L. A. Martinez-Martinez,  S. A. Maurer,  
 N. J. Mayhall,  S. C. McKenzie,  J.-M. Mewes,  A. F. Morrison,  
 J. W. Mullinax,  K. Nanda,  T. S. Nguyen-Beck,  R. Olivares-Amaya,  
 J. A. Parkhill,  T. M. Perrine,  F. Plasser,  P. Pokhilko,  S. Prager,  
 A. Prociuk,  E. Ramos,  D. R. Rehn,  F. Rob,  M. Schneider,  N. Sergueev,  
 S. M. Sharada,  S. Sharma,  D. W. Small,  T. Stauch,  T. Stein,  
 Yu-Chuan Su,  A. J. W. Thom,  A. Tkatchenko,  T. Tsuchimochi,  N. M. Tubman,  
 L. Vogt,  M. L. Vidal,  O. Vydrov,  M. A. Watson,  J. Wenzel,  
 M. de Wergifosse,  T. A. Wesolowski,  A. White,  J. Witte,  A. Yamada,  
 Jun Yang,  K. Yao,  S. Yeganeh,  S. R. Yost,  Zhi-Qiang You,  A. Zech,  
 Igor Ying Zhang,  Xing Zhang,  Yan Zhao,  Ying Zhu,  B. R. Brooks,  
 G. K. L. Chan,  C. J. Cramer,  M. S. Gordon,  W. J. Hehre,  A. Klamt,  
 M. W. Schmidt,  C. D. Sherrill,  D. G. Truhlar,  A. Aspuru-Guzik,  R. Baer,  
 A. T. Bell,  N. A. Besley,  Jeng-Da Chai,  A. E. DePrince, III,  
 R. A. DiStasio Jr.,  A. Dreuw,  B. D. Dunietz,  T. R. Furlani,  
 Chao-Ping Hsu,  Yousung Jung,  Jing Kong,  D. S. Lambrecht,  WanZhen Liang,  
 C. Ochsenfeld,  V. A. Rassolov,  L. V. Slipchenko,  J. E. Subotnik,  
 T. Van Voorhis,  J. M. Herbert,  A. I. Krylov,  P. M. W. Gill,  M. Head-Gordon

 Contributors to earlier versions of Q-Chem not listed above: 
 R. D. Adamson,  B. Austin,  J. Baker,  G. J. O. Beran,  K. Brandhorst,  
 S. T. Brown,  E. F. C. Byrd,  A. K. Chakraborty,  C.-L. Cheng,  
 Siu Hung Chien,  D. M. Chipman,  D. L. Crittenden,  H. Dachsel,  
 R. J. Doerksen,  A. D. Dutoi,  L. Fusti-Molnar,  W. A. Goddard III,  
 A. Golubeva-Zadorozhnaya,  S. R. Gwaltney,  G. Hawkins,  A. Heyden,  
 S. Hirata,  G. Kedziora,  F. J. Keil,  C. Kelley,  Jihan Kim,  R. A. King,  
 R. Z. Khaliullin,  P. P. Korambath,  W. Kurlancheek,  A. M. Lee,  M. S. Lee,  
 S. V. Levchenko,  Ching Yeh Lin,  D. Liotard,  R. C. Lochan,  I. Lotan,  
 P. E. Maslen,  N. Nair,  D. P. O'Neill,  D. Neuhauser,  E. Neuscamman,  
 C. M. Oana,  R. Olson,  B. Peters,  R. Peverati,  P. A. Pieniazek,  
 Y. M. Rhee,  J. Ritchie,  M. A. Rohrdanz,  E. Rosta,  N. J. Russ,  
 H. F. Schaefer III,  N. E. Schultz,  N. Shenvi,  A. C. Simmonett,  A. Sodt,  
 D. Stuck,  K. S. Thanthiriwatte,  V. Vanovschi,  Tao Wang,  A. Warshel,  
 C. F. Williams,  Q. Wu,  X. Xu,  W. Zhang

 Please cite Q-Chem as follows:
 Y. Shao et al., Mol. Phys. 113, 184-215 (2015)
 DOI: 10.1080/00268976.2014.952696

 Q-Chem 5.1.1 for Intel X86 EM64T Linux

 Parts of Q-Chem use Armadillo 8.300.2 (Tropical Shenanigans).
 http://arma.sourceforge.net/

 Q-Chem begins on Thu Apr  6 14:16:35 2023  

Host: 
0

     Scratch files written to /tmp/songzl/qchem_baker_set/qchem31315//
 Aug318 |scratch|qcdevops|jenkins|workspace|build_RNUM 6609   
Processing $rem in /apps/apps/qchem/qc51/config/preferences.
 MEM_TOTAL  1000 
The previous job contains 0 fragments, simply inherited here
Input Ideriv = 2
Curr. Ideriv = -1
Max.  Ideriv = 2

Checking the input file for inconsistencies... 	...done.

--------------------------------------------------------------
User input:
--------------------------------------------------------------
$molecule
READ ./zmat.inp
$end

$rem
mem_total               230000
mem_static              2048
job_type                optimization
basis                   6-31g**
method                  b3lyp
symmetry                false
sym_ignore              true
geom_opt_max_cycles     500
$end
--------------------------------------------------------------
 ----------------------------------------------------------------
             Standard Nuclear Orientation (Angstroms)
    I     Atom           X                Y                Z
 ----------------------------------------------------------------
    1      C       0.0000000000     0.0000000000     0.0000000000
    2      N       0.0000000000     0.0000000000     1.1400000000
    3      H       0.0000000000     0.0000000000     2.1400000000
 ----------------------------------------------------------------
 Nuclear Repulsion Energy =    24.6839174016 hartrees
 There are        7 alpha and        7 beta electrons
 Requested basis set is 6-31G(d,p)
 There are 11 shells and 35 basis functions

 Total QAlloc Memory Limit 230000 MB
 Mega-Array Size      2002 MB
 MEM_STATIC part      2048 MB
 A cutoff of  1.0D-11 yielded     66 shell pairs
 There are       687 function pairs
 
 -------------------------------------------------------
 OpenMP Integral Computing Module                       
 Release: version 1.0, May 2013, Q-Chem Inc. Pittsburgh 
 -------------------------------------------------------
 Integral Job Info:
 Integral job number is                      11
 Integral operator is                         1
 short-range coefficients                     0
 long-range coefficients              100000000
 Omega coefficients                           0
 if combine SR and LR in K                    0
 Integral screening is                        0
 Integral computing path is                   2
 max size of driver memory is            800000
 size of driver memory is                593474
 size of scratch memory is              2361544
 max col of scratch BK array               1296
 max len of scratch array in speh3          155
 max len of scratch index in speh4           18
 max int batch size is                      520
 min int batch size is                       52
 fixed nKL is                                52
 max L of basis functions is                  2
 order of int derivative is                   0
 number of shells is                         11
 number of basis is                          35
 number of cartesian basis is                35
 number of contracted shell pairs            66
 number of primitive shell pairs            364
 maxK2 (contraction) of shell pair           36
 max number of K2 of shell pair               1
 max number of CS2 of shell pair              5
 max number of PS2 of shell pair             72
 mem total for path MDJ                  509160
 -------------------------------------------------------
 Smallest overlap matrix eigenvalue = 4.92E-03

 Scale SEOQF with 1.000000e+00/1.000000e+00/1.000000e-01

 Standard Electronic Orientation quadrupole field applied
 Nucleus-field energy     =    -0.0000000015 hartrees
 Guess from superposition of atomic densities
 Warning:  Energy on first SCF cycle will be non-variational
 SAD guess density has 14.000000 electrons

 -----------------------------------------------------------------------
  General SCF calculation program by
  Eric Jon Sundstrom, Paul Horn, Yuezhi Mao, Dmitri Zuev, Alec White,
  David Stuck, Shaama M.S., Shane Yost, Joonho Lee, David Small,
  Daniel Levine, Susi Lehtola, Hugh Burton, Evgeny Epifanovsky
 -----------------------------------------------------------------------
 Exchange:     0.2000 Hartree-Fock + 0.0800 Slater + 0.7200 B88
 Correlation:  0.1900 VWN1RPA + 0.8100 LYP
 Using SG-1 standard quadrature grid
 using 8 threads for integral computing
 -------------------------------------------------------
 OpenMP Integral computing Module                
 Release: version 1.0, May 2013, Q-Chem Inc. Pittsburgh 
 -------------------------------------------------------
 -------------------------------------------------------
 OpenMP BLAS3 based DFT computing Module                
 Release: version 1.0, May 2013, Q-Chem Inc. Pittsburgh 
 -------------------------------------------------------
 A restricted SCF calculation will be
 performed using DIIS
 SCF converges when DIIS error is below 1.0e-08
 ---------------------------------------
  Cycle       Energy         DIIS error
 ---------------------------------------
    1     -93.6570314534      1.30e-01  
    2     -93.3667741896      1.43e-02  
    3     -93.3770208357      1.21e-02  
    4     -93.3960230231      2.76e-03  
    5     -93.3970613152      4.31e-04  
    6     -93.3970863143      2.72e-05  
    7     -93.3970864462      1.73e-06  
    8     -93.3970864467      2.05e-07  
    9     -93.3970864467      2.46e-08  
   10     -93.3970864467      2.42e-09  Convergence criterion met
 ---------------------------------------
 SCF time:   CPU 2.72s  wall 1.00s 
 SCF   energy in the final basis set =      -93.3970864467
 Total energy in the final basis set =      -93.3970864467
 
 --------------------------------------------------------------
 
                    Orbital Energies (a.u.)
 --------------------------------------------------------------
 
 Alpha MOs
 -- Occupied --
-14.373 -10.222  -0.954  -0.666  -0.380  -0.380  -0.305
 -- Virtual --
  0.039   0.039   0.067   0.347   0.516   0.549   0.549   0.636
  0.733   0.733   0.907   1.206   1.406   1.447   1.447   1.500
  1.500   1.956   1.956   2.140   2.140   2.352   2.833   2.932
  2.932   3.460   4.005   4.997
 --------------------------------------------------------------
 
          Ground-State Mulliken Net Atomic Charges

     Atom                 Charge (a.u.)
  ----------------------------------------
      1 C                     0.018819
      2 N                    -0.318480
      3 H                     0.299661
  ----------------------------------------
  Sum of atomic charges =    -0.000000

 -----------------------------------------------------------------
                    Cartesian Multipole Moments
 -----------------------------------------------------------------
    Charge (ESU x 10^10)
                 0.0000
    Dipole Moment (Debye)
         X       0.0000      Y      -0.0000      Z       3.0414
       Tot       3.0414
    Quadrupole Moments (Debye-Ang)
        XX     -11.3995     XY      -0.0000     YY     -11.3995
        XZ      -0.0000     YZ      -0.0000     ZZ      -5.6112
    Octopole Moments (Debye-Ang^2)
       XXX       0.0000    XXY      -0.0000    XYY       0.0000
       YYY      -0.0000    XXZ      -7.0585    XYZ      -0.0000
       YYZ      -7.0585    XZZ       0.0000    YZZ      -0.0000
       ZZZ      -3.9407
    Hexadecapole Moments (Debye-Ang^3)
      XXXX     -10.1939   XXXY      -0.0000   XXYY      -3.3980
      XYYY      -0.0000   YYYY     -10.1939   XXXZ       0.0000
      XXYZ      -0.0000   XYYZ       0.0000   YYYZ      -0.0000
      XXZZ     -12.8654   XYZZ      -0.0000   YYZZ     -12.8654
      XZZZ       0.0000   YZZZ      -0.0000   ZZZZ     -26.8926
 -----------------------------------------------------------------
 Calculating analytic gradient of the SCF energy
 Gradient of SCF Energy
            1           2           3
    1  -0.0000000   0.0000000   0.0000000
    2   0.0000000  -0.0000000  -0.0000000
    3   0.0903688  -0.0931430   0.0027742
 Max gradient component =       9.314E-02
 RMS gradient           =       4.327E-02
 Gradient time:  CPU 2.15 s  wall 0.27 s
 Geometry Optimization Parameters
   NAtoms,    NIC,     NZ,  NCons,   NDum,   NFix, NCnnct, MaxDiis
        3       9       3       0       0       0       0       0


** GEOMETRY OPTIMIZATION IN DELOCALIZED INTERNAL COORDINATES **
   Searching for a Minimum

   Optimization Cycle:   1

                       Coordinates (Angstroms)
     ATOM                X               Y               Z
      1  C         0.0000000000    0.0000000000    0.0000000000
      2  N         0.0000000000    0.0000000000    1.1400000000
      3  H         0.0000000000    0.0000000000    2.1400000000
   Point Group: c1    Number of degrees of freedom:     3


   Energy is    -93.397086447


 Attempting to Generate Delocalized Internal Coordinates

  ***ERROR*** Angle     3    2    1   is near-linear
              But No atom available to define colinear bend
**WARNING** Problems with Internal Coordinates
  Switching to Cartesian Coordinates

 Translations and Rotations Projected Out of Hessian

  3 Hessian modes will be used to form the next step
  Hessian Eigenvalues:
     1.000000    1.000000    1.000000

 Minimum Search - Taking Simple RFO Step
 Searching for Lamda that Minimizes Along All modes
 Value Taken    Lamda =  -0.01657516
 Step Taken.  Stepsize is  0.127690

                             Maximum     Tolerance    Cnvgd?
         Gradient           0.093143      0.000300      NO
         Displacement       0.091624      0.001200      NO
         Energy change     *********      0.000001      NO

 ----------------------------------------------------------------
             Standard Nuclear Orientation (Angstroms)
    I     Atom           X                Y                Z
 ----------------------------------------------------------------
    1      C       0.0000000000     0.0000000000    -0.0470413700
    2      N       0.0000000000     0.0000000000     1.1884854825
    3      H       0.0000000000     0.0000000000     2.1385558875
 ----------------------------------------------------------------
 Nuclear Repulsion Energy =    23.3402686859 hartrees
 There are        7 alpha and        7 beta electrons
 Applying Cartesian multipole field
    Component          Value
    ---------          -----
     (2,0,0)        1.00000E-10
     (0,2,0)        2.00000E-10
     (0,0,2)       -3.00000E-11
 Nucleus-field energy     =    -0.0000000016 hartrees
 Requested basis set is 6-31G(d,p)
 There are 11 shells and 35 basis functions
 A cutoff of  1.0D-11 yielded     66 shell pairs
 There are       687 function pairs
 Smallest overlap matrix eigenvalue = 6.90E-03
 Guess MOs from SCF MO coefficient file

 -----------------------------------------------------------------------
  General SCF calculation program by
  Eric Jon Sundstrom, Paul Horn, Yuezhi Mao, Dmitri Zuev, Alec White,
  David Stuck, Shaama M.S., Shane Yost, Joonho Lee, David Small,
  Daniel Levine, Susi Lehtola, Hugh Burton, Evgeny Epifanovsky
 -----------------------------------------------------------------------
 Exchange:     0.2000 Hartree-Fock + 0.0800 Slater + 0.7200 B88
 Correlation:  0.1900 VWN1RPA + 0.8100 LYP
 Using SG-1 standard quadrature grid
 using 8 threads for integral computing
 -------------------------------------------------------
 OpenMP Integral computing Module                
 Release: version 1.0, May 2013, Q-Chem Inc. Pittsburgh 
 -------------------------------------------------------
 -------------------------------------------------------
 OpenMP BLAS3 based DFT computing Module                
 Release: version 1.0, May 2013, Q-Chem Inc. Pittsburgh 
 -------------------------------------------------------
 A restricted SCF calculation will be
 performed using DIIS
 SCF converges when DIIS error is below 1.0e-08
 ---------------------------------------
  Cycle       Energy         DIIS error
 ---------------------------------------
    1     -93.3863556951      5.06e-03  
    2     -93.3903618230      2.48e-03  
    3     -93.3911386019      9.03e-04  
    4     -93.3911186229      1.06e-03  
    5     -93.3912733499      4.60e-05  
    6     -93.3912736017      6.79e-06  
    7     -93.3912736080      6.30e-07  
    8     -93.3912736081      3.13e-08  
    9     -93.3912736081      6.66e-09  Convergence criterion met
 ---------------------------------------
 SCF time:   CPU 2.39s  wall 0.00s 
 SCF   energy in the final basis set =      -93.3912736081
 Total energy in the final basis set =      -93.3912736081
 
 --------------------------------------------------------------
 
                    Orbital Energies (a.u.)
 --------------------------------------------------------------
 
 Alpha MOs
 -- Occupied --
-14.379 -10.257  -0.927  -0.671  -0.359  -0.359  -0.325
 -- Virtual --
  0.003   0.003   0.085   0.344   0.473   0.555   0.555   0.626
  0.724   0.724   0.899   1.107   1.395   1.395   1.422   1.529
  1.529   1.900   1.900   2.107   2.107   2.237   2.798   2.902
  2.902   3.459   3.970   4.848
 --------------------------------------------------------------
 
          Ground-State Mulliken Net Atomic Charges

     Atom                 Charge (a.u.)
  ----------------------------------------
      1 C                     0.086777
      2 N                    -0.375332
      3 H                     0.288555
  ----------------------------------------
  Sum of atomic charges =    -0.000000

 -----------------------------------------------------------------
                    Cartesian Multipole Moments
 -----------------------------------------------------------------
    Charge (ESU x 10^10)
                -0.0000
    Dipole Moment (Debye)
         X       0.0000      Y      -0.0000      Z       2.6165
       Tot       2.6165
    Quadrupole Moments (Debye-Ang)
        XX     -11.6147     XY       0.0000     YY     -11.6147
        XZ      -0.0000     YZ      -0.0000     ZZ      -6.2595
    Octopole Moments (Debye-Ang^2)
       XXX       0.0000    XXY       0.0000    XYY       0.0000
       YYY      -0.0000    XXZ      -7.2883    XYZ      -0.0000
       YYZ      -7.2883    XZZ       0.0000    YZZ      -0.0000
       ZZZ      -5.0029
    Hexadecapole Moments (Debye-Ang^3)
      XXXX     -10.5855   XXXY       0.0000   XXYY      -3.5285
      XYYY       0.0000   YYYY     -10.5855   XXXZ      -0.0000
      XXYZ      -0.0000   XYYZ      -0.0000   YYYZ      -0.0000
      XXZZ     -13.6975   XYZZ       0.0000   YYZZ     -13.6975
      XZZZ      -0.0000   YZZZ      -0.0000   ZZZZ     -32.3126
 -----------------------------------------------------------------
 Calculating analytic gradient of the SCF energy
 Gradient of SCF Energy
            1           2           3
    1  -0.0000000   0.0000000  -0.0000000
    2   0.0000000  -0.0000000  -0.0000000
    3  -0.1076549   0.1646953  -0.0570404
 Max gradient component =       1.647E-01
 RMS gradient           =       6.829E-02
 Gradient time:  CPU 2.00 s  wall 0.25 s
 Geometry Optimization Parameters
   NAtoms,    NIC,     NZ,  NCons,   NDum,   NFix, NCnnct, MaxDiis
        3       9       3       0       0       0       0       0

 Cartesian Hessian Update
 Hessian Updated using BFGS Update


** GEOMETRY OPTIMIZATION IN CARTESIAN COORDINATES **
   Searching for a Minimum

   Optimization Cycle:   2

                       Coordinates (Angstroms)
     ATOM                X               Y               Z
      1  C         0.0000000000    0.0000000000   -0.0470413700
      2  N         0.0000000000    0.0000000000    1.1884854825
      3  H         0.0000000000    0.0000000000    2.1385558875
   Point Group: c1    Number of degrees of freedom:     3


   Energy is    -93.391273608


 Translations and Rotations Projected Out of Hessian

  2 Hessian modes will be used to form the next step
  Hessian Eigenvalues:
     0.940322    2.699675

 Minimum Search - Taking Simple RFO Step
 Searching for Lamda that Minimizes Along All modes
 Value Taken    Lamda =  -0.01546232
 Step Taken.  Stepsize is  0.075506

                             Maximum     Tolerance    Cnvgd?
         Gradient           0.164695      0.000300      NO
         Displacement       0.060966      0.001200      NO
         Energy change      0.005813      0.000001      NO

 ----------------------------------------------------------------
             Standard Nuclear Orientation (Angstroms)
    I     Atom           X                Y                Z
 ----------------------------------------------------------------
    1      C       0.0000000000     0.0000000000    -0.0267120809
    2      N       0.0000000000     0.0000000000     1.1562235623
    3      H       0.0000000000     0.0000000000     2.1504885185
 ----------------------------------------------------------------
 Nuclear Repulsion Energy =    23.9723094193 hartrees
 There are        7 alpha and        7 beta electrons
 Applying Cartesian multipole field
    Component          Value
    ---------          -----
     (2,0,0)        1.00000E-10
     (0,2,0)        2.00000E-10
     (0,0,2)       -3.00000E-11
 Nucleus-field energy     =    -0.0000000015 hartrees
 Requested basis set is 6-31G(d,p)
 There are 11 shells and 35 basis functions
 A cutoff of  1.0D-11 yielded     66 shell pairs
 There are       687 function pairs
 Smallest overlap matrix eigenvalue = 5.75E-03
 Guess MOs from SCF MO coefficient file

 -----------------------------------------------------------------------
  General SCF calculation program by
  Eric Jon Sundstrom, Paul Horn, Yuezhi Mao, Dmitri Zuev, Alec White,
  David Stuck, Shaama M.S., Shane Yost, Joonho Lee, David Small,
  Daniel Levine, Susi Lehtola, Hugh Burton, Evgeny Epifanovsky
 -----------------------------------------------------------------------
 Exchange:     0.2000 Hartree-Fock + 0.0800 Slater + 0.7200 B88
 Correlation:  0.1900 VWN1RPA + 0.8100 LYP
 Using SG-1 standard quadrature grid
 using 8 threads for integral computing
 -------------------------------------------------------
 OpenMP Integral computing Module                
 Release: version 1.0, May 2013, Q-Chem Inc. Pittsburgh 
 -------------------------------------------------------
 -------------------------------------------------------
 OpenMP BLAS3 based DFT computing Module                
 Release: version 1.0, May 2013, Q-Chem Inc. Pittsburgh 
 -------------------------------------------------------
 A restricted SCF calculation will be
 performed using DIIS
 SCF converges when DIIS error is below 1.0e-08
 ---------------------------------------
  Cycle       Energy         DIIS error
 ---------------------------------------
    1     -93.3983649271      2.98e-03  
    2     -93.3997137703      1.41e-03  
    3     -93.3999111567      8.15e-04  
    4     -93.3999605315      6.37e-04  
    5     -93.4000135989      2.69e-05  
    6     -93.4000136975      2.56e-06  
    7     -93.4000136983      2.65e-07  
    8     -93.4000136983      2.69e-08  
    9     -93.4000136983      2.20e-10  Convergence criterion met
 ---------------------------------------
 SCF time:   CPU 2.38s  wall 0.00s 
 SCF   energy in the final basis set =      -93.4000136983
 Total energy in the final basis set =      -93.4000136983
 
 --------------------------------------------------------------
 
                    Orbital Energies (a.u.)
 --------------------------------------------------------------
 
 Alpha MOs
 -- Occupied --
-14.377 -10.238  -0.940  -0.664  -0.370  -0.370  -0.314
 -- Virtual --
  0.023   0.023   0.069   0.348   0.496   0.553   0.553   0.632
  0.728   0.728   0.895   1.152   1.404   1.422   1.422   1.514
  1.514   1.930   1.930   2.120   2.120   2.295   2.785   2.898
  2.898   3.438   3.989   4.863
 --------------------------------------------------------------
 
          Ground-State Mulliken Net Atomic Charges

     Atom                 Charge (a.u.)
  ----------------------------------------
      1 C                     0.051372
      2 N                    -0.351836
      3 H                     0.300463
  ----------------------------------------
  Sum of atomic charges =    -0.000000

 -----------------------------------------------------------------
                    Cartesian Multipole Moments
 -----------------------------------------------------------------
    Charge (ESU x 10^10)
                 0.0000
    Dipole Moment (Debye)
         X       0.0000      Y      -0.0000      Z       2.8829
       Tot       2.8829
    Quadrupole Moments (Debye-Ang)
        XX     -11.5208     XY      -0.0000     YY     -11.5208
        XZ       0.0000     YZ      -0.0000     ZZ      -5.8194
    Octopole Moments (Debye-Ang^2)
       XXX       0.0000    XXY      -0.0000    XYY       0.0000
       YYY      -0.0000    XXZ      -7.1415    XYZ      -0.0000
       YYZ      -7.1415    XZZ       0.0000    YZZ       0.0000
       ZZZ      -3.9686
    Hexadecapole Moments (Debye-Ang^3)
      XXXX     -10.4034   XXXY      -0.0000   XXYY      -3.4678
      XYYY      -0.0000   YYYY     -10.4034   XXXZ      -0.0000
      XXYZ      -0.0000   XYYZ       0.0000   YYYZ      -0.0000
      XXZZ     -13.2583   XYZZ      -0.0000   YYZZ     -13.2583
      XZZZ       0.0000   YZZZ       0.0000   ZZZZ     -28.3396
 -----------------------------------------------------------------
 Calculating analytic gradient of the SCF energy
 Gradient of SCF Energy
            1           2           3
    1  -0.0000000   0.0000000  -0.0000000
    2  -0.0000000   0.0000000  -0.0000000
    3  -0.0133131   0.0175757  -0.0042626
 Max gradient component =       1.758E-02
 RMS gradient           =       7.486E-03
 Gradient time:  CPU 2.00 s  wall 0.25 s
 Geometry Optimization Parameters
   NAtoms,    NIC,     NZ,  NCons,   NDum,   NFix, NCnnct, MaxDiis
        3       9       3       0       0       0       0       0

 Cartesian Hessian Update
 Hessian Updated using BFGS Update


** GEOMETRY OPTIMIZATION IN CARTESIAN COORDINATES **
   Searching for a Minimum

   Optimization Cycle:   3

                       Coordinates (Angstroms)
     ATOM                X               Y               Z
      1  C         0.0000000000    0.0000000000   -0.0267120809
      2  N         0.0000000000    0.0000000000    1.1562235623
      3  H         0.0000000000    0.0000000000    2.1504885185
   Point Group: c1    Number of degrees of freedom:     3


   Energy is    -93.400013698


 Translations and Rotations Projected Out of Hessian

  2 Hessian modes will be used to form the next step
  Hessian Eigenvalues:
     0.941102    2.418313

 Minimum Search - Taking Simple RFO Step
 Searching for Lamda that Minimizes Along All modes
 Value Taken    Lamda =  -0.00021318
 Step Taken.  Stepsize is  0.009647

                             Maximum     Tolerance    Cnvgd?
         Gradient           0.017576      0.000300      NO
         Displacement       0.007028      0.001200      NO
         Energy change     -0.008740      0.000001      NO

 ----------------------------------------------------------------
             Standard Nuclear Orientation (Angstroms)
    I     Atom           X                Y                Z
 ----------------------------------------------------------------
    1      C       0.0000000000     0.0000000000    -0.0232227806
    2      N       0.0000000000     0.0000000000     1.1525045137
    3      H       0.0000000000     0.0000000000     2.1507182669
 ----------------------------------------------------------------
 Nuclear Repulsion Energy =    24.0749489884 hartrees
 There are        7 alpha and        7 beta electrons
 Applying Cartesian multipole field
    Component          Value
    ---------          -----
     (2,0,0)        1.00000E-10
     (0,2,0)        2.00000E-10
     (0,0,2)       -3.00000E-11
 Nucleus-field energy     =    -0.0000000015 hartrees
 Requested basis set is 6-31G(d,p)
 There are 11 shells and 35 basis functions
 A cutoff of  1.0D-11 yielded     66 shell pairs
 There are       687 function pairs
 Smallest overlap matrix eigenvalue = 5.60E-03
 Guess MOs from SCF MO coefficient file

 -----------------------------------------------------------------------
  General SCF calculation program by
  Eric Jon Sundstrom, Paul Horn, Yuezhi Mao, Dmitri Zuev, Alec White,
  David Stuck, Shaama M.S., Shane Yost, Joonho Lee, David Small,
  Daniel Levine, Susi Lehtola, Hugh Burton, Evgeny Epifanovsky
 -----------------------------------------------------------------------
 Exchange:     0.2000 Hartree-Fock + 0.0800 Slater + 0.7200 B88
 Correlation:  0.1900 VWN1RPA + 0.8100 LYP
 Using SG-1 standard quadrature grid
 using 8 threads for integral computing
 -------------------------------------------------------
 OpenMP Integral computing Module                
 Release: version 1.0, May 2013, Q-Chem Inc. Pittsburgh 
 -------------------------------------------------------
 -------------------------------------------------------
 OpenMP BLAS3 based DFT computing Module                
 Release: version 1.0, May 2013, Q-Chem Inc. Pittsburgh 
 -------------------------------------------------------
 A restricted SCF calculation will be
 performed using DIIS
 SCF converges when DIIS error is below 1.0e-08
 ---------------------------------------
  Cycle       Energy         DIIS error
 ---------------------------------------
    1     -93.4000775425      3.91e-04  
    2     -93.4001003691      1.99e-04  
    3     -93.4001056077      5.55e-05  
    4     -93.4001058557      4.47e-05  
    5     -93.4001061267      5.24e-06  
    6     -93.4001061300      4.03e-07  
    7     -93.4001061301      3.39e-08  
    8     -93.4001061301      1.50e-09  Convergence criterion met
 ---------------------------------------
 SCF time:   CPU 2.16s  wall 1.00s 
 SCF   energy in the final basis set =      -93.4001061301
 Total energy in the final basis set =      -93.4001061301
 
 --------------------------------------------------------------
 
                    Orbital Energies (a.u.)
 --------------------------------------------------------------
 
 Alpha MOs
 -- Occupied --
-14.377 -10.235  -0.942  -0.663  -0.371  -0.371  -0.312
 -- Virtual --
  0.026   0.026   0.068   0.348   0.499   0.552   0.552   0.633
  0.729   0.729   0.896   1.160   1.402   1.426   1.426   1.512
  1.512   1.935   1.935   2.122   2.122   2.304   2.787   2.900
  2.900   3.439   3.991   4.874
 --------------------------------------------------------------
 
          Ground-State Mulliken Net Atomic Charges

     Atom                 Charge (a.u.)
  ----------------------------------------
      1 C                     0.046176
      2 N                    -0.347411
      3 H                     0.301235
  ----------------------------------------
  Sum of atomic charges =     0.000000

 -----------------------------------------------------------------
                    Cartesian Multipole Moments
 -----------------------------------------------------------------
    Charge (ESU x 10^10)
                 0.0000
    Dipole Moment (Debye)
         X       0.0000      Y       0.0000      Z       2.9153
       Tot       2.9153
    Quadrupole Moments (Debye-Ang)
        XX     -11.5044     XY      -0.0000     YY     -11.5044
        XZ      -0.0000     YZ      -0.0000     ZZ      -5.7692
    Octopole Moments (Debye-Ang^2)
       XXX      -0.0000    XXY       0.0000    XYY      -0.0000
       YYY       0.0000    XXZ      -7.1237    XYZ      -0.0000
       YYZ      -7.1237    XZZ       0.0000    YZZ      -0.0000
       ZZZ      -3.8831
    Hexadecapole Moments (Debye-Ang^3)
      XXXX     -10.3737   XXXY      -0.0000   XXYY      -3.4579
      XYYY      -0.0000   YYYY     -10.3737   XXXZ      -0.0000
      XXYZ       0.0000   XYYZ      -0.0000   YYYZ       0.0000
      XXZZ     -13.1958   XYZZ      -0.0000   YYZZ     -13.1958
      XZZZ      -0.0000   YZZZ      -0.0000   ZZZZ     -27.9193
 -----------------------------------------------------------------
 Calculating analytic gradient of the SCF energy
 Gradient of SCF Energy
            1           2           3
    1  -0.0000000   0.0000000   0.0000000
    2   0.0000000  -0.0000000  -0.0000000
    3   0.0022693  -0.0021218  -0.0001475
 Max gradient component =       2.269E-03
 RMS gradient           =       1.037E-03
 Gradient time:  CPU 2.00 s  wall 0.25 s
 Geometry Optimization Parameters
   NAtoms,    NIC,     NZ,  NCons,   NDum,   NFix, NCnnct, MaxDiis
        3       9       3       0       0       0       0       0

 Cartesian Hessian Update
 Hessian Updated using BFGS Update


** GEOMETRY OPTIMIZATION IN CARTESIAN COORDINATES **
   Searching for a Minimum

   Optimization Cycle:   4

                       Coordinates (Angstroms)
     ATOM                X               Y               Z
      1  C         0.0000000000    0.0000000000   -0.0232227806
      2  N         0.0000000000    0.0000000000    1.1525045137
      3  H         0.0000000000    0.0000000000    2.1507182669
   Point Group: c1    Number of degrees of freedom:     3


   Energy is    -93.400106130


 Translations and Rotations Projected Out of Hessian

  2 Hessian modes will be used to form the next step
  Hessian Eigenvalues:
     0.961598    2.698029

 Minimum Search - Taking Simple RFO Step
 Searching for Lamda that Minimizes Along All modes
 Value Taken    Lamda =  -0.00000430
 Step Taken.  Stepsize is  0.001530

                             Maximum     Tolerance    Cnvgd?
         Gradient           0.002269      0.000300      NO
         Displacement       0.001249      0.001200      NO
         Energy change     -0.000092      0.000001      NO

 ----------------------------------------------------------------
             Standard Nuclear Orientation (Angstroms)
    I     Atom           X                Y                Z
 ----------------------------------------------------------------
    1      C       0.0000000000     0.0000000000    -0.0238835403
    2      N       0.0000000000     0.0000000000     1.1528487997
    3      H       0.0000000000     0.0000000000     2.1510347406
 ----------------------------------------------------------------
 Nuclear Repulsion Energy =    24.0582506318 hartrees
 There are        7 alpha and        7 beta electrons
 Applying Cartesian multipole field
    Component          Value
    ---------          -----
     (2,0,0)        1.00000E-10
     (0,2,0)        2.00000E-10
     (0,0,2)       -3.00000E-11
 Nucleus-field energy     =    -0.0000000015 hartrees
 Requested basis set is 6-31G(d,p)
 There are 11 shells and 35 basis functions
 A cutoff of  1.0D-11 yielded     66 shell pairs
 There are       687 function pairs
 Smallest overlap matrix eigenvalue = 5.62E-03
 Guess MOs from SCF MO coefficient file

 -----------------------------------------------------------------------
  General SCF calculation program by
  Eric Jon Sundstrom, Paul Horn, Yuezhi Mao, Dmitri Zuev, Alec White,
  David Stuck, Shaama M.S., Shane Yost, Joonho Lee, David Small,
  Daniel Levine, Susi Lehtola, Hugh Burton, Evgeny Epifanovsky
 -----------------------------------------------------------------------
 Exchange:     0.2000 Hartree-Fock + 0.0800 Slater + 0.7200 B88
 Correlation:  0.1900 VWN1RPA + 0.8100 LYP
 Using SG-1 standard quadrature grid
 using 8 threads for integral computing
 -------------------------------------------------------
 OpenMP Integral computing Module                
 Release: version 1.0, May 2013, Q-Chem Inc. Pittsburgh 
 -------------------------------------------------------
 -------------------------------------------------------
 OpenMP BLAS3 based DFT computing Module                
 Release: version 1.0, May 2013, Q-Chem Inc. Pittsburgh 
 -------------------------------------------------------
 A restricted SCF calculation will be
 performed using DIIS
 SCF converges when DIIS error is below 1.0e-08
 ---------------------------------------
  Cycle       Energy         DIIS error
 ---------------------------------------
    1     -93.4001078181      5.25e-05  
    2     -93.4001082107      3.12e-05  
    3     -93.4001083173      1.34e-05  
    4     -93.4001083234      1.11e-05  
    5     -93.4001083406      2.54e-07  
    6     -93.4001083406      6.86e-08  
    7     -93.4001083406      2.49e-09  Convergence criterion met
 ---------------------------------------
 SCF time:   CPU 1.87s  wall 0.00s 
 SCF   energy in the final basis set =      -93.4001083406
 Total energy in the final basis set =      -93.4001083406
 
 --------------------------------------------------------------
 
                    Orbital Energies (a.u.)
 --------------------------------------------------------------
 
 Alpha MOs
 -- Occupied --
-14.377 -10.235  -0.942  -0.663  -0.371  -0.371  -0.313
 -- Virtual --
  0.025   0.025   0.068   0.348   0.499   0.552   0.552   0.633
  0.729   0.729   0.895   1.158   1.402   1.426   1.426   1.512
  1.512   1.934   1.934   2.122   2.122   2.303   2.786   2.899
  2.899   3.438   3.991   4.870
 --------------------------------------------------------------
 
          Ground-State Mulliken Net Atomic Charges

     Atom                 Charge (a.u.)
  ----------------------------------------
      1 C                     0.046901
      2 N                    -0.348184
      3 H                     0.301284
  ----------------------------------------
  Sum of atomic charges =    -0.000000

 -----------------------------------------------------------------
                    Cartesian Multipole Moments
 -----------------------------------------------------------------
    Charge (ESU x 10^10)
                 0.0000
    Dipole Moment (Debye)
         X       0.0000      Y      -0.0000      Z       2.9117
       Tot       2.9117
    Quadrupole Moments (Debye-Ang)
        XX     -11.5073     XY       0.0000     YY     -11.5073
        XZ       0.0000     YZ       0.0000     ZZ      -5.7733
    Octopole Moments (Debye-Ang^2)
       XXX      -0.0000    XXY      -0.0000    XYY       0.0000
       YYY      -0.0000    XXZ      -7.1254    XYZ       0.0000
       YYZ      -7.1254    XZZ       0.0000    YZZ       0.0000
       ZZZ      -3.8808
    Hexadecapole Moments (Debye-Ang^3)
      XXXX     -10.3786   XXXY       0.0000   XXYY      -3.4595
      XYYY       0.0000   YYYY     -10.3786   XXXZ       0.0000
      XXYZ      -0.0000   XYYZ       0.0000   YYYZ      -0.0000
      XXZZ     -13.2051   XYZZ       0.0000   YYZZ     -13.2051
      XZZZ       0.0000   YZZZ       0.0000   ZZZZ     -27.9473
 -----------------------------------------------------------------
 Calculating analytic gradient of the SCF energy
 Gradient of SCF Energy
            1           2           3
    1  -0.0000000   0.0000000   0.0000000
    2   0.0000000  -0.0000000   0.0000000
    3   0.0000707   0.0001378  -0.0002085
 Max gradient component =       2.085E-04
 RMS gradient           =       8.659E-05
 Gradient time:  CPU 2.00 s  wall 0.25 s
 Geometry Optimization Parameters
   NAtoms,    NIC,     NZ,  NCons,   NDum,   NFix, NCnnct, MaxDiis
        3       9       3       0       0       0       0       0

 Cartesian Hessian Update
 Hessian Updated using BFGS Update


** GEOMETRY OPTIMIZATION IN CARTESIAN COORDINATES **
   Searching for a Minimum

   Optimization Cycle:   5

                       Coordinates (Angstroms)
     ATOM                X               Y               Z
      1  C         0.0000000000    0.0000000000   -0.0238835403
      2  N         0.0000000000    0.0000000000    1.1528487997
      3  H         0.0000000000    0.0000000000    2.1510347406
   Point Group: c1    Number of degrees of freedom:     3


   Energy is    -93.400108341


 Translations and Rotations Projected Out of Hessian

  2 Hessian modes will be used to form the next step
  Hessian Eigenvalues:
     0.859876    2.930695

 Minimum Search - Taking Simple RFO Step
 Searching for Lamda that Minimizes Along All modes
 Value Taken    Lamda =   0.00000000
 Step Taken.  Stepsize is  0.000265

                             Maximum     Tolerance    Cnvgd?
         Gradient           0.000209      0.000300     YES
         Displacement       0.000214      0.001200     YES
         Energy change     -0.000002      0.000001      NO


                       Distance Matrix (Angstroms)
             C (  1)   N (  2)
   N (  2)  1.176732
   H (  3)  2.174918  0.998186
 
 Final energy is   -93.4001083406222     


 ******************************
 **  OPTIMIZATION CONVERGED  **
 ******************************

                       Coordinates (Angstroms)
     ATOM                X               Y               Z
      1  C         0.0000000000    0.0000000000   -0.0238835403
      2  N         0.0000000000    0.0000000000    1.1528487997
      3  H         0.0000000000    0.0000000000    2.1510347406

Z-matrix Print:
$molecule
0 1
N 
H  1 0.998186
C  1 1.176732 2 179.999999
$end

 
 --------------------------------------------------------------
 
                    Orbital Energies (a.u.)
 --------------------------------------------------------------
 
 Alpha MOs
 -- Occupied --
-14.377 -10.235  -0.942  -0.663  -0.371  -0.371  -0.313
 -- Virtual --
  0.025   0.025   0.068   0.348   0.499   0.552   0.552   0.633
  0.729   0.729   0.895   1.158   1.402   1.426   1.426   1.512
  1.512   1.934   1.934   2.122   2.122   2.303   2.786   2.899
  2.899   3.438   3.991   4.870
 --------------------------------------------------------------
 
          Ground-State Mulliken Net Atomic Charges

     Atom                 Charge (a.u.)
  ----------------------------------------
      1 C                     0.046901
      2 N                    -0.348184
      3 H                     0.301284
  ----------------------------------------
  Sum of atomic charges =    -0.000000

 -----------------------------------------------------------------
                    Cartesian Multipole Moments
 -----------------------------------------------------------------
    Charge (ESU x 10^10)
                 0.0000
    Dipole Moment (Debye)
         X       0.0000      Y      -0.0000      Z       2.9117
       Tot       2.9117
    Quadrupole Moments (Debye-Ang)
        XX     -11.5073     XY       0.0000     YY     -11.5073
        XZ       0.0000     YZ       0.0000     ZZ      -5.7733
    Octopole Moments (Debye-Ang^2)
       XXX      -0.0000    XXY      -0.0000    XYY       0.0000
       YYY      -0.0000    XXZ      -7.1254    XYZ       0.0000
       YYZ      -7.1254    XZZ       0.0000    YZZ       0.0000
       ZZZ      -3.8808
    Hexadecapole Moments (Debye-Ang^3)
      XXXX     -10.3786   XXXY       0.0000   XXYY      -3.4595
      XYYY       0.0000   YYYY     -10.3786   XXXZ       0.0000
      XXYZ      -0.0000   XYYZ       0.0000   YYYZ      -0.0000
      XXZZ     -13.2051   XYZZ       0.0000   YYZZ     -13.2051
      XZZZ       0.0000   YZZZ       0.0000   ZZZZ     -27.9473
 -----------------------------------------------------------------
Archival summary:
1\1\node1\OPT\ProcedureUnspecified\6-31G**\111\songzl\ThuApr614:16:382023ThuApr614:16:382023\0\\#,OPT,ProcedureUnspecified,6-31G**,\\0,1\N\H,1,0.998186\C,1,1.17673,2,180\\\@

 Total job time:  3.08s(wall), 24.07s(cpu) 
 Thu Apr  6 14:16:38 2023

        *************************************************************
        *                                                           *
        *  Thank you very much for using Q-Chem.  Have a nice day.  *
        *                                                           *
        *************************************************************


