
Running Job 1 of 1 qchem_batch_opt.inp
qchem qchem_batch_opt.inp_15842.0 /tmp/songzl/qchem_baker_set/qchem15842/ 1
/apps/apps/qchem/qc51/exe/qcprog.exe_s qchem_batch_opt.inp_15842.0 /tmp/songzl/qchem_baker_set/qchem15842/
Check license passed

                  Welcome to Q-Chem
     A Quantum Leap Into The Future Of Chemistry


 Q-Chem 5.1, Q-Chem, Inc., Pleasanton, CA (2018)

 Yihan Shao,  Zhengting Gan,  E. Epifanovsky,  A. T. B. Gilbert,  M. Wormit,  
 J. Kussmann,  A. W. Lange,  A. Behn,  Jia Deng,  Xintian Feng,  D. Ghosh,  
 M. Goldey,  P. R. Horn,  L. D. Jacobson,  I. Kaliman,  T. Kus,  A. Landau,  
 Jie Liu,  E. I. Proynov,  R. M. Richard,  R. P. Steele,  E. J. Sundstrom,  
 H. L. Woodcock III,  P. M. Zimmerman,  D. Zuev,  B. Albrecht,  E. Alguire,  
 S. A. Baeppler,  D. Barton,  Z. Benda,  Y. A. Bernard,  E. J. Berquist,  
 K. B. Bravaya,  H. Burton,  D. Casanova,  Chun-Min Chang,  Yunqing Chen,  
 A. Chien,  K. D. Closser,  M. P. Coons,  S. Coriani,  S. Dasgupta,  
 A. L. Dempwolff,  M. Diedenhofen,  Hainam Do,  R. G. Edgar,  Po-Tung Fang,  
 S. Faraji,  S. Fatehi,  Qingguo Feng,  K. D. Fenk,  J. Fosso-Tande,  
 Qinghui Ge,  A. Ghysels,  G. Gidofalvi,  J. Gomes,  J. Gonthier,  A. Gunina,  
 D. Hait,  M. W. D. Hanson-Heine,  P. H. P. Harbach,  A. W. Hauser,  
 J. E. Herr,  E. G. Hohenstein,  Z. C. Holden,  Kerwin Hui,  B. C. Huynh,  
 T.-C. Jagau,  Hyunjun Ji,  B. Kaduk,  K. Khistyaev,  Jaehoon Kim,  
 P. Klunzinger,  K. Koh,  D. Kosenkov,  L. Koulias,  T. Kowalczyk,  
 C. M. Krauter,  A. Kunitsa,  Ka Un Lao,  A. Laurent,  K. V. Lawler,  
 Joonho Lee,  D. Lefrancois,  S. Lehtola,  D. S. Levine,  Yi-Pei Li,  
 You-Sheng Lin,  Fenglai Liu,  E. Livshits,  A. Luenser,  P. Manohar,  
 E. Mansoor,  S. F. Manzer,  Shan-Ping Mao,  Yuezhi Mao,  N. Mardirossian,  
 A. V. Marenich,  T. Markovich,  L. A. Martinez-Martinez,  S. A. Maurer,  
 N. J. Mayhall,  S. C. McKenzie,  J.-M. Mewes,  A. F. Morrison,  
 J. W. Mullinax,  K. Nanda,  T. S. Nguyen-Beck,  R. Olivares-Amaya,  
 J. A. Parkhill,  T. M. Perrine,  F. Plasser,  P. Pokhilko,  S. Prager,  
 A. Prociuk,  E. Ramos,  D. R. Rehn,  F. Rob,  M. Schneider,  N. Sergueev,  
 S. M. Sharada,  S. Sharma,  D. W. Small,  T. Stauch,  T. Stein,  
 Yu-Chuan Su,  A. J. W. Thom,  A. Tkatchenko,  T. Tsuchimochi,  N. M. Tubman,  
 L. Vogt,  M. L. Vidal,  O. Vydrov,  M. A. Watson,  J. Wenzel,  
 M. de Wergifosse,  T. A. Wesolowski,  A. White,  J. Witte,  A. Yamada,  
 Jun Yang,  K. Yao,  S. Yeganeh,  S. R. Yost,  Zhi-Qiang You,  A. Zech,  
 Igor Ying Zhang,  Xing Zhang,  Yan Zhao,  Ying Zhu,  B. R. Brooks,  
 G. K. L. Chan,  C. J. Cramer,  M. S. Gordon,  W. J. Hehre,  A. Klamt,  
 M. W. Schmidt,  C. D. Sherrill,  D. G. Truhlar,  A. Aspuru-Guzik,  R. Baer,  
 A. T. Bell,  N. A. Besley,  Jeng-Da Chai,  A. E. DePrince, III,  
 R. A. DiStasio Jr.,  A. Dreuw,  B. D. Dunietz,  T. R. Furlani,  
 Chao-Ping Hsu,  Yousung Jung,  Jing Kong,  D. S. Lambrecht,  WanZhen Liang,  
 C. Ochsenfeld,  V. A. Rassolov,  L. V. Slipchenko,  J. E. Subotnik,  
 T. Van Voorhis,  J. M. Herbert,  A. I. Krylov,  P. M. W. Gill,  M. Head-Gordon

 Contributors to earlier versions of Q-Chem not listed above: 
 R. D. Adamson,  B. Austin,  J. Baker,  G. J. O. Beran,  K. Brandhorst,  
 S. T. Brown,  E. F. C. Byrd,  A. K. Chakraborty,  C.-L. Cheng,  
 Siu Hung Chien,  D. M. Chipman,  D. L. Crittenden,  H. Dachsel,  
 R. J. Doerksen,  A. D. Dutoi,  L. Fusti-Molnar,  W. A. Goddard III,  
 A. Golubeva-Zadorozhnaya,  S. R. Gwaltney,  G. Hawkins,  A. Heyden,  
 S. Hirata,  G. Kedziora,  F. J. Keil,  C. Kelley,  Jihan Kim,  R. A. King,  
 R. Z. Khaliullin,  P. P. Korambath,  W. Kurlancheek,  A. M. Lee,  M. S. Lee,  
 S. V. Levchenko,  Ching Yeh Lin,  D. Liotard,  R. C. Lochan,  I. Lotan,  
 P. E. Maslen,  N. Nair,  D. P. O'Neill,  D. Neuhauser,  E. Neuscamman,  
 C. M. Oana,  R. Olson,  B. Peters,  R. Peverati,  P. A. Pieniazek,  
 Y. M. Rhee,  J. Ritchie,  M. A. Rohrdanz,  E. Rosta,  N. J. Russ,  
 H. F. Schaefer III,  N. E. Schultz,  N. Shenvi,  A. C. Simmonett,  A. Sodt,  
 D. Stuck,  K. S. Thanthiriwatte,  V. Vanovschi,  Tao Wang,  A. Warshel,  
 C. F. Williams,  Q. Wu,  X. Xu,  W. Zhang

 Please cite Q-Chem as follows:
 Y. Shao et al., Mol. Phys. 113, 184-215 (2015)
 DOI: 10.1080/00268976.2014.952696

 Q-Chem 5.1.1 for Intel X86 EM64T Linux

 Parts of Q-Chem use Armadillo 8.300.2 (Tropical Shenanigans).
 http://arma.sourceforge.net/

 Q-Chem begins on Thu Apr  6 15:05:56 2023  

Host: 
0

     Scratch files written to /tmp/songzl/qchem_baker_set/qchem15842//
 Aug318 |scratch|qcdevops|jenkins|workspace|build_RNUM 6609   
Processing $rem in /apps/apps/qchem/qc51/config/preferences.
 MEM_TOTAL  1000 
The previous job contains 0 fragments, simply inherited here
Input Ideriv = 2
Curr. Ideriv = -1
Max.  Ideriv = 2

Checking the input file for inconsistencies... 	...done.

--------------------------------------------------------------
User input:
--------------------------------------------------------------
$molecule
READ ./zmat.inp
$end

$rem
mem_total               230000
mem_static              2048
job_type                optimization
basis                   6-31g**
method                  b3lyp
symmetry                false
sym_ignore              true
geom_opt_max_cycles     500
$end
--------------------------------------------------------------
 ----------------------------------------------------------------
             Standard Nuclear Orientation (Angstroms)
    I     Atom           X                Y                Z
 ----------------------------------------------------------------
    1      N       0.0379918201     0.0000000000    -0.0627697710
    2      N       0.0379918221     0.0000000000     1.2627697674
    3      C       3.3321512450     0.0000000000    -2.4070886300
    4      C       3.3321512450     0.0000000000     3.6070886350
    5      N       3.9300856769     0.0000000000    -1.5628632564
    6      N       3.9300856765     0.0000000000     2.7628632550
    7      H       2.7342168150     0.0000000000    -3.2513140069
    8      H       2.7342168153     0.0000000000     4.4513140103
 ----------------------------------------------------------------
 Nuclear Repulsion Energy =   138.5561516578 hartrees
 There are       21 alpha and       21 beta electrons
 Requested basis set is 6-31G(d,p)
 There are 30 shells and 100 basis functions

 Total QAlloc Memory Limit 230000 MB
 Mega-Array Size      2002 MB
 MEM_STATIC part      2048 MB
 A cutoff of  1.0D-11 yielded    315 shell pairs
 There are      3776 function pairs
 
 -------------------------------------------------------
 OpenMP Integral Computing Module                       
 Release: version 1.0, May 2013, Q-Chem Inc. Pittsburgh 
 -------------------------------------------------------
 Integral Job Info:
 Integral job number is                      11
 Integral operator is                         1
 short-range coefficients                     0
 long-range coefficients              100000000
 Omega coefficients                           0
 if combine SR and LR in K                    0
 Integral screening is                        0
 Integral computing path is                   2
 max size of driver memory is            800000
 size of driver memory is                593474
 size of scratch memory is              2361544
 max col of scratch BK array               1296
 max len of scratch array in speh3          155
 max len of scratch index in speh4           18
 max int batch size is                      520
 min int batch size is                       52
 fixed nKL is                                52
 max L of basis functions is                  2
 order of int derivative is                   0
 number of shells is                         30
 number of basis is                         100
 number of cartesian basis is               100
 number of contracted shell pairs           315
 number of primitive shell pairs           1346
 maxK2 (contraction) of shell pair           36
 max number of K2 of shell pair               1
 max number of CS2 of shell pair             44
 max number of PS2 of shell pair            228
 mem total for path MDJ                  514788
 -------------------------------------------------------
 Smallest overlap matrix eigenvalue = 1.97E-03

 Scale SEOQF with 1.000000e-01/1.000000e+00/1.000000e-01

 Standard Electronic Orientation quadrupole field applied
 Nucleus-field energy     =    -0.0000000111 hartrees
 Guess from superposition of atomic densities
 Warning:  Energy on first SCF cycle will be non-variational
 SAD guess density has 42.000000 electrons

 -----------------------------------------------------------------------
  General SCF calculation program by
  Eric Jon Sundstrom, Paul Horn, Yuezhi Mao, Dmitri Zuev, Alec White,
  David Stuck, Shaama M.S., Shane Yost, Joonho Lee, David Small,
  Daniel Levine, Susi Lehtola, Hugh Burton, Evgeny Epifanovsky
 -----------------------------------------------------------------------
 Exchange:     0.2000 Hartree-Fock + 0.0800 Slater + 0.7200 B88
 Correlation:  0.1900 VWN1RPA + 0.8100 LYP
 Using SG-1 standard quadrature grid
 using 8 threads for integral computing
 -------------------------------------------------------
 OpenMP Integral computing Module                
 Release: version 1.0, May 2013, Q-Chem Inc. Pittsburgh 
 -------------------------------------------------------
 -------------------------------------------------------
 OpenMP BLAS3 based DFT computing Module                
 Release: version 1.0, May 2013, Q-Chem Inc. Pittsburgh 
 -------------------------------------------------------
 A restricted SCF calculation will be
 performed using DIIS
 SCF converges when DIIS error is below 1.0e-08
 ---------------------------------------
  Cycle       Energy         DIIS error
 ---------------------------------------
    1    -296.8993440890      7.96e-02  
    2    -296.0537164565      1.08e-02  
    3    -295.8775802777      1.67e-02  
    4    -296.1836460701      3.04e-03  
    5    -296.1940861243      2.43e-04  
    6    -296.1941482429      2.99e-05  
    7    -296.1941491975      5.89e-06  
    8    -296.1941492358      1.13e-06  
    9    -296.1941492372      9.73e-08  
   10    -296.1941492372      8.76e-08  
   11    -296.1941492372      5.37e-08  
   12    -296.1941492372      1.50e-09  Convergence criterion met
 ---------------------------------------
 SCF time:   CPU 6.04s  wall 1.00s 
 SCF   energy in the final basis set =     -296.1941492372
 Total energy in the final basis set =     -296.1941492372
 
 --------------------------------------------------------------
 
                    Orbital Energies (a.u.)
 --------------------------------------------------------------
 
 Alpha MOs
 -- Occupied --
-14.490 -14.489 -14.318 -14.318 -10.204 -10.204  -1.001  -0.954
 -0.954  -0.609  -0.598  -0.598  -0.417  -0.404  -0.404  -0.381
 -0.381  -0.381  -0.380  -0.358  -0.356
 -- Virtual --
 -0.108  -0.108   0.074   0.075   0.076   0.076   0.111   0.111
  0.241   0.265   0.278   0.501   0.504   0.516   0.516   0.612
  0.626   0.630   0.633   0.648   0.664   0.668   0.727   0.733
  0.734   0.743   0.794   0.798   0.803   0.815   0.864   0.867
  1.098   1.311   1.312   1.419   1.419   1.481   1.481   1.481
  1.481   1.509   1.523   1.523   1.523   1.523   1.525   1.528
  1.529   1.826   1.826   2.036   2.036   2.036   2.036   2.122
  2.210   2.210   2.210   2.212   2.367   2.369   2.576   2.609
  2.648   3.006   3.006   3.007   3.008   3.098   3.136   3.221
  3.504   3.726   3.726   4.032   4.035   5.145   5.149
 --------------------------------------------------------------
 
          Ground-State Mulliken Net Atomic Charges

     Atom                 Charge (a.u.)
  ----------------------------------------
      1 N                     0.000194
      2 N                     0.000194
      3 C                     0.139960
      4 C                     0.139960
      5 N                    -0.327096
      6 N                    -0.327096
      7 H                     0.186943
      8 H                     0.186943
  ----------------------------------------
  Sum of atomic charges =     0.000000

 -----------------------------------------------------------------
                    Cartesian Multipole Moments
 -----------------------------------------------------------------
    Charge (ESU x 10^10)
                 0.0000
    Dipole Moment (Debye)
         X      -3.1881      Y      -0.0000      Z       0.0000
       Tot       3.1881
    Quadrupole Moments (Debye-Ang)
        XX     -54.7150     XY      -0.0000     YY     -32.4243
        XZ      -1.9129     YZ       0.0000     ZZ      -8.0350
    Octopole Moments (Debye-Ang^2)
       XXX    -354.7552    XXY      -0.0000    XYY     -78.9502
       YYY      -0.0000    XXZ     -32.8290    XYZ       0.0000
       YYZ     -19.4546    XZZ     -21.3402    YZZ      -0.0000
       ZZZ     -14.4631
    Hexadecapole Moments (Debye-Ang^3)
      XXXX   -2304.7569   XXXY      -0.0000   XXYY    -294.8920
      XYYY      -0.0000   YYYY     -27.7848   XXXZ    -212.8531
      XXYZ       0.0000   XYYZ     -47.3701   YYYZ       0.0000
      XXZZ    -359.0104   XYZZ      -0.0000   YYZZ    -182.6214
      XZZZ     -37.0350   YZZZ       0.0000   ZZZZ    -550.6890
 -----------------------------------------------------------------
 Calculating analytic gradient of the SCF energy
 Gradient of SCF Energy
            1           2           3           4           5           6
    1  -0.0001966  -0.0001966   0.2468264   0.2468264  -0.2618165  -0.2618164
    2  -0.0000000   0.0000000  -0.0000000  -0.0000000   0.0000000  -0.0000000
    3  -0.3119378   0.3119378   0.3480202  -0.3480202  -0.3690571   0.3690571
            7           8
    1   0.0151866   0.0151866
    2  -0.0000000   0.0000000
    3   0.0213473  -0.0213473
 Max gradient component =       3.691E-01
 RMS gradient           =       2.010E-01
 Gradient time:  CPU 2.97 s  wall 0.37 s
 Geometry Optimization Parameters
   NAtoms,    NIC,     NZ,  NCons,   NDum,   NFix, NCnnct, MaxDiis
        8      97       0       0       0       0       0       0


** GEOMETRY OPTIMIZATION IN DELOCALIZED INTERNAL COORDINATES **
   Searching for a Minimum

   Optimization Cycle:   1

                       Coordinates (Angstroms)
     ATOM                X               Y               Z
      1  N         0.0379918201    0.0000000000   -0.0627697710
      2  N         0.0379918221    0.0000000000    1.2627697674
      3  C         3.3321512450    0.0000000000   -2.4070886300
      4  C         3.3321512450    0.0000000000    3.6070886350
      5  N         3.9300856769    0.0000000000   -1.5628632564
      6  N         3.9300856765    0.0000000000    2.7628632550
      7  H         2.7342168150    0.0000000000   -3.2513140069
      8  H         2.7342168153    0.0000000000    4.4513140103
   Point Group: c1    Number of degrees of freedom:    18


   Energy is   -296.194149237


 Attempting to Generate Delocalized Internal Coordinates

 ** Taking Steepest Descent Step **
 Calculated Step too Large.  Step scaled by  0.441536
 Step Taken.  Stepsize is  0.300000

                             Maximum     Tolerance    Cnvgd?
         Gradient           0.454173      0.000300      NO
         Displacement       0.200534      0.001200      NO
         Energy change     *********      0.000001      NO


 New Cartesian Coordinates Obtained by Inverse Iteration

 Displacement from previous Coordinates is:  0.328442
 ----------------------------------------------------------------
             Standard Nuclear Orientation (Angstroms)
    I     Atom           X                Y                Z
 ----------------------------------------------------------------
    1      N       0.0825227995     0.0000000000    -0.0296131475
    2      N       0.0825228014     0.0000000000     1.2296131437
    3      C       3.3010497326     0.0000000000    -2.4714300909
    4      C       3.3010497338     0.0000000000     3.6714300943
    5      N       3.9696434540     0.0000000000    -1.5596138977
    6      N       3.9696434517     0.0000000000     2.7596138995
    7      H       2.6812295707     0.0000000000    -3.3016268083
    8      H       2.6812295722     0.0000000000     4.5016268102
 ----------------------------------------------------------------
 Nuclear Repulsion Energy =   135.6683572819 hartrees
 There are       21 alpha and       21 beta electrons
 Applying Cartesian multipole field
    Component          Value
    ---------          -----
     (2,0,0)        1.00000E-11
     (0,2,0)        2.00000E-10
     (0,0,2)       -3.00000E-11
 Nucleus-field energy     =    -0.0000000115 hartrees
 Requested basis set is 6-31G(d,p)
 There are 30 shells and 100 basis functions
 A cutoff of  1.0D-11 yielded    313 shell pairs
 There are      3752 function pairs
 Smallest overlap matrix eigenvalue = 2.65E-03
 Guess MOs from SCF MO coefficient file

 -----------------------------------------------------------------------
  General SCF calculation program by
  Eric Jon Sundstrom, Paul Horn, Yuezhi Mao, Dmitri Zuev, Alec White,
  David Stuck, Shaama M.S., Shane Yost, Joonho Lee, David Small,
  Daniel Levine, Susi Lehtola, Hugh Burton, Evgeny Epifanovsky
 -----------------------------------------------------------------------
 Exchange:     0.2000 Hartree-Fock + 0.0800 Slater + 0.7200 B88
 Correlation:  0.1900 VWN1RPA + 0.8100 LYP
 Using SG-1 standard quadrature grid
 using 8 threads for integral computing
 -------------------------------------------------------
 OpenMP Integral computing Module                
 Release: version 1.0, May 2013, Q-Chem Inc. Pittsburgh 
 -------------------------------------------------------
 -------------------------------------------------------
 OpenMP BLAS3 based DFT computing Module                
 Release: version 1.0, May 2013, Q-Chem Inc. Pittsburgh 
 -------------------------------------------------------
 A restricted SCF calculation will be
 performed using DIIS
 SCF converges when DIIS error is below 1.0e-08
 ---------------------------------------
  Cycle       Energy         DIIS error
 ---------------------------------------
    1    -296.3032382385      3.26e-03  
    2    -296.3125814869      2.53e-03  
    3    -296.3152132306      2.04e-03  
    4    -296.3194817574      4.32e-04  
    5    -296.3197036794      2.01e-05  
    6    -296.3197041685      5.47e-06  
    7    -296.3197042026      1.19e-06  
    8    -296.3197042043      6.06e-08  
    9    -296.3197042043      1.15e-08  
   10    -296.3197042043      5.64e-09  Convergence criterion met
 ---------------------------------------
 SCF time:   CPU 5.00s  wall 1.00s 
 SCF   energy in the final basis set =     -296.3197042043
 Total energy in the final basis set =     -296.3197042043
 
 --------------------------------------------------------------
 
                    Orbital Energies (a.u.)
 --------------------------------------------------------------
 
 Alpha MOs
 -- Occupied --
-14.478 -14.478 -14.346 -14.346 -10.229 -10.229  -1.035  -0.922
 -0.922  -0.607  -0.607  -0.593  -0.420  -0.419  -0.419  -0.370
 -0.368  -0.358  -0.358  -0.358  -0.357
 -- Virtual --
 -0.086  -0.086   0.035   0.036   0.037   0.037   0.103   0.103
  0.273   0.277   0.311   0.508   0.514   0.525   0.525   0.616
  0.625   0.629   0.636   0.654   0.663   0.666   0.705   0.706
  0.732   0.749   0.775   0.780   0.785   0.797   0.831   0.834
  1.125   1.148   1.153   1.443   1.445   1.453   1.458   1.458
  1.458   1.466   1.478   1.503   1.504   1.506   1.506   1.506
  1.506   1.856   1.856   1.973   1.973   1.973   1.973   2.143
  2.144   2.145   2.146   2.225   2.437   2.439   2.456   2.477
  2.661   2.906   2.909   2.909   2.910   2.916   2.949   3.244
  3.514   3.606   3.606   3.899   3.900   4.833   4.838
 --------------------------------------------------------------
 
          Ground-State Mulliken Net Atomic Charges

     Atom                 Charge (a.u.)
  ----------------------------------------
      1 N                     0.000029
      2 N                     0.000029
      3 C                     0.163889
      4 C                     0.163889
      5 N                    -0.362236
      6 N                    -0.362236
      7 H                     0.198318
      8 H                     0.198318
  ----------------------------------------
  Sum of atomic charges =    -0.000000

 -----------------------------------------------------------------
                    Cartesian Multipole Moments
 -----------------------------------------------------------------
    Charge (ESU x 10^10)
                -0.0000
    Dipole Moment (Debye)
         X      -3.2945      Y      -0.0000      Z       0.0000
       Tot       3.2945
    Quadrupole Moments (Debye-Ang)
        XX     -55.7365     XY       0.0000     YY     -32.9768
        XZ      -1.9767     YZ       0.0000     ZZ      -8.2145
    Octopole Moments (Debye-Ang^2)
       XXX    -364.9230    XXY       0.0000    XYY     -81.9417
       YYY      -0.0000    XXZ     -33.4419    XYZ       0.0000
       YYZ     -19.7861    XZZ     -26.3008    YZZ       0.0000
       ZZZ     -14.7861
    Hexadecapole Moments (Debye-Ang^3)
      XXXX   -2365.3915   XXXY       0.0000   XXYY    -305.0517
      XYYY      -0.0000   YYYY     -28.7948   XXXZ    -218.9538
      XXYZ       0.0000   XYYZ     -49.1650   YYYZ       0.0000
      XXZZ    -393.6564   XYZZ       0.0000   YYZZ    -192.0074
      XZZZ     -45.9183   YZZZ       0.0000   ZZZZ    -571.5896
 -----------------------------------------------------------------
 Calculating analytic gradient of the SCF energy
 Gradient of SCF Energy
            1           2           3           4           5           6
    1  -0.0002020  -0.0002020   0.0263167   0.0263167  -0.0422036  -0.0422036
    2   0.0000000  -0.0000000  -0.0000000  -0.0000000  -0.0000000   0.0000000
    3  -0.2719071   0.2719071   0.0348846  -0.0348846  -0.0565985   0.0565985
            7           8
    1   0.0160889   0.0160889
    2   0.0000000   0.0000000
    3   0.0219433  -0.0219433
 Max gradient component =       2.719E-01
 RMS gradient           =       8.245E-02
 Gradient time:  CPU 2.74 s  wall 0.34 s
 Geometry Optimization Parameters
   NAtoms,    NIC,     NZ,  NCons,   NDum,   NFix, NCnnct, MaxDiis
        8      97       0       0       0       0       0       0

 Cartesian Hessian Update
 Hessian Updated using BFGS Update


** GEOMETRY OPTIMIZATION IN DELOCALIZED INTERNAL COORDINATES **
   Searching for a Minimum

   Optimization Cycle:   2

                       Coordinates (Angstroms)
     ATOM                X               Y               Z
      1  N         0.0825227995    0.0000000000   -0.0296131475
      2  N         0.0825228014    0.0000000000    1.2296131437
      3  C         3.3010497326    0.0000000000   -2.4714300909
      4  C         3.3010497338    0.0000000000    3.6714300943
      5  N         3.9696434540    0.0000000000   -1.5596138977
      6  N         3.9696434517    0.0000000000    2.7596138995
      7  H         2.6812295707    0.0000000000   -3.3016268083
      8  H         2.6812295722    0.0000000000    4.5016268102
   Point Group: c1    Number of degrees of freedom:    18


   Energy is   -296.319704204

 Hessian Updated using BFGS Update

  8 Hessian modes will be used to form the next step
  Hessian Eigenvalues:
     0.005724    0.016278    0.079157    0.175920    0.402523    0.404985
     0.555679    2.020537

 Minimum Search - Taking Simple RFO Step
 Searching for Lamda that Minimizes Along All modes
 Value Taken    Lamda =  -0.11620937
 Calculated Step too Large.  Step scaled by  0.718790
 Step Taken.  Stepsize is  0.300000

                             Maximum     Tolerance    Cnvgd?
         Gradient           0.210979      0.000300      NO
         Displacement       0.224628      0.001200      NO
         Energy change     -0.125555      0.000001      NO


 New Cartesian Coordinates Obtained by Inverse Iteration

 Displacement from previous Coordinates is:  0.258514
 ----------------------------------------------------------------
             Standard Nuclear Orientation (Angstroms)
    I     Atom           X                Y                Z
 ----------------------------------------------------------------
    1      N       0.1214106768     0.0000000000     0.0451268370
    2      N       0.1214106783     0.0000000000     1.1548731593
    3      C       3.2888328031     0.0000000000    -2.4654215271
    4      C       3.2888328044     0.0000000000     3.6654215300
    5      N       3.9848463088     0.0000000000    -1.5518665096
    6      N       3.9848463050     0.0000000000     2.7518665138
    7      H       2.6393557683     0.0000000000    -3.2962556464
    8      H       2.6393557712     0.0000000000     4.4962556464
 ----------------------------------------------------------------
 Nuclear Repulsion Energy =   138.0597550210 hartrees
 There are       21 alpha and       21 beta electrons
 Applying Cartesian multipole field
    Component          Value
    ---------          -----
     (2,0,0)        1.00000E-11
     (0,2,0)        2.00000E-10
     (0,0,2)       -3.00000E-11
 Nucleus-field energy     =    -0.0000000113 hartrees
 Requested basis set is 6-31G(d,p)
 There are 30 shells and 100 basis functions
 A cutoff of  1.0D-11 yielded    313 shell pairs
 There are      3752 function pairs
 Smallest overlap matrix eigenvalue = 2.83E-03
 Guess MOs from SCF MO coefficient file

 -----------------------------------------------------------------------
  General SCF calculation program by
  Eric Jon Sundstrom, Paul Horn, Yuezhi Mao, Dmitri Zuev, Alec White,
  David Stuck, Shaama M.S., Shane Yost, Joonho Lee, David Small,
  Daniel Levine, Susi Lehtola, Hugh Burton, Evgeny Epifanovsky
 -----------------------------------------------------------------------
 Exchange:     0.2000 Hartree-Fock + 0.0800 Slater + 0.7200 B88
 Correlation:  0.1900 VWN1RPA + 0.8100 LYP
 Using SG-1 standard quadrature grid
 using 8 threads for integral computing
 -------------------------------------------------------
 OpenMP Integral computing Module                
 Release: version 1.0, May 2013, Q-Chem Inc. Pittsburgh 
 -------------------------------------------------------
 -------------------------------------------------------
 OpenMP BLAS3 based DFT computing Module                
 Release: version 1.0, May 2013, Q-Chem Inc. Pittsburgh 
 -------------------------------------------------------
 A restricted SCF calculation will be
 performed using DIIS
 SCF converges when DIIS error is below 1.0e-08
 ---------------------------------------
  Cycle       Energy         DIIS error
 ---------------------------------------
    1    -296.3570901192      3.08e-03  
    2    -296.3701311825      1.18e-03  
    3    -296.3715244318      4.01e-04  
    4    -296.3715744641      3.53e-04  
    5    -296.3717102786      1.78e-05  
    6    -296.3717106107      4.45e-06  
    7    -296.3717106358      4.98e-07  
    8    -296.3717106361      7.65e-08  
    9    -296.3717106362      2.61e-08  
   10    -296.3717106362      2.10e-08  
   11    -296.3717106362      1.55e-09  Convergence criterion met
 ---------------------------------------
 SCF time:   CPU 5.48s  wall 1.00s 
 SCF   energy in the final basis set =     -296.3717106362
 Total energy in the final basis set =     -296.3717106362
 
 --------------------------------------------------------------
 
                    Orbital Energies (a.u.)
 --------------------------------------------------------------
 
 Alpha MOs
 -- Occupied --
-14.447 -14.446 -14.350 -14.350 -10.235 -10.235  -1.120  -0.915
 -0.915  -0.604  -0.604  -0.554  -0.460  -0.460  -0.427  -0.372
 -0.370  -0.354  -0.354  -0.353  -0.353
 -- Virtual --
 -0.026  -0.026   0.029   0.030   0.030   0.031   0.095   0.095
  0.276   0.284   0.405   0.506   0.526   0.526   0.529   0.593
  0.608   0.616   0.621   0.658   0.667   0.700   0.701   0.751
  0.762   0.772   0.777   0.782   0.782   0.796   0.818   0.825
  1.109   1.109   1.238   1.441   1.448   1.449   1.449   1.451
  1.453   1.461   1.469   1.512   1.512   1.512   1.512   1.545
  1.545   1.937   1.938   1.962   1.962   1.962   1.962   2.126
  2.127   2.127   2.129   2.402   2.415   2.432   2.590   2.593
  2.811   2.868   2.873   2.873   2.874   2.878   2.910   3.292
  3.559   3.560   3.589   3.873   3.874   4.748   4.753
 --------------------------------------------------------------
 
          Ground-State Mulliken Net Atomic Charges

     Atom                 Charge (a.u.)
  ----------------------------------------
      1 N                     0.000011
      2 N                     0.000011
      3 C                     0.159338
      4 C                     0.159338
      5 N                    -0.362437
      6 N                    -0.362438
      7 H                     0.203088
      8 H                     0.203088
  ----------------------------------------
  Sum of atomic charges =    -0.000000

 -----------------------------------------------------------------
                    Cartesian Multipole Moments
 -----------------------------------------------------------------
    Charge (ESU x 10^10)
                -0.0000
    Dipole Moment (Debye)
         X      -3.4147      Y       0.0000      Z       0.0000
       Tot       3.4147
    Quadrupole Moments (Debye-Ang)
        XX     -56.1900     XY       0.0000     YY     -32.7473
        XZ      -2.0488     YZ      -0.0000     ZZ      -8.4306
    Octopole Moments (Debye-Ang^2)
       XXX    -370.6759    XXY       0.0000    XYY     -82.8434
       YYY       0.0000    XXZ     -33.7140    XYZ      -0.0000
       YYZ     -19.6484    XZZ     -29.4944    YZZ      -0.0000
       ZZZ     -15.1750
    Hexadecapole Moments (Debye-Ang^3)
      XXXX   -2391.0433   XXXY       0.0000   XXYY    -307.1373
      XYYY       0.0000   YYYY     -28.4625   XXXZ    -222.4055
      XXYZ      -0.0000   XYYZ     -49.7060   YYYZ      -0.0000
      XXZZ    -406.6820   XYZZ      -0.0000   YYZZ    -191.5842
      XZZZ     -51.6148   YZZZ      -0.0000   ZZZZ    -570.4596
 -----------------------------------------------------------------
 Calculating analytic gradient of the SCF energy
 Gradient of SCF Energy
            1           2           3           4           5           6
    1  -0.0002150  -0.0002150   0.0072702   0.0072702  -0.0137883  -0.0137883
    2  -0.0000000   0.0000000   0.0000000   0.0000000  -0.0000000  -0.0000000
    3  -0.0130009   0.0130009   0.0080612  -0.0080612  -0.0170030   0.0170030
            7           8
    1   0.0067331   0.0067331
    2  -0.0000000   0.0000000
    3   0.0091314  -0.0091314
 Max gradient component =       1.700E-02
 RMS gradient           =       8.635E-03
 Gradient time:  CPU 2.75 s  wall 0.35 s
 Geometry Optimization Parameters
   NAtoms,    NIC,     NZ,  NCons,   NDum,   NFix, NCnnct, MaxDiis
        8      97       0       0       0       0       0       0

 Cartesian Hessian Update
 Hessian Updated using BFGS Update


** GEOMETRY OPTIMIZATION IN DELOCALIZED INTERNAL COORDINATES **
   Searching for a Minimum

   Optimization Cycle:   3

                       Coordinates (Angstroms)
     ATOM                X               Y               Z
      1  N         0.1214106768    0.0000000000    0.0451268370
      2  N         0.1214106783    0.0000000000    1.1548731593
      3  C         3.2888328031    0.0000000000   -2.4654215271
      4  C         3.2888328044    0.0000000000    3.6654215300
      5  N         3.9848463088    0.0000000000   -1.5518665096
      6  N         3.9848463050    0.0000000000    2.7518665138
      7  H         2.6393557683    0.0000000000   -3.2962556464
      8  H         2.6393557712    0.0000000000    4.4962556464
   Point Group: c1    Number of degrees of freedom:    18


   Energy is   -296.371710636

 Hessian Updated using BFGS Update

  7 Hessian modes will be used to form the next step
  Hessian Eigenvalues:
     0.005724    0.016310    0.079161    0.175917    0.400504    0.880244
     2.000553

 Minimum Search - Taking Simple RFO Step
 Searching for Lamda that Minimizes Along All modes
 Value Taken    Lamda =  -0.00131887
 Step Taken.  Stepsize is  0.052883

                             Maximum     Tolerance    Cnvgd?
         Gradient           0.024346      0.000300      NO
         Displacement       0.040771      0.001200      NO
         Energy change     -0.052006      0.000001      NO


 New Cartesian Coordinates Obtained by Inverse Iteration

 Displacement from previous Coordinates is:  0.070340
 ----------------------------------------------------------------
             Standard Nuclear Orientation (Angstroms)
    I     Atom           X                Y                Z
 ----------------------------------------------------------------
    1      N       0.1307650935     0.0000000000     0.0492658852
    2      N       0.1307650952     0.0000000000     1.1507341101
    3      C       3.2872860789     0.0000000000    -2.4733381797
    4      C       3.2872860782     0.0000000000     3.6733381852
    5      N       3.9906427607     0.0000000000    -1.5579331074
    6      N       3.9906427550     0.0000000000     2.7579331149
    7      H       2.6257516233     0.0000000000    -3.3126136019
    8      H       2.6257516311     0.0000000000     4.5126135969
 ----------------------------------------------------------------
 Nuclear Repulsion Energy =   137.8820942629 hartrees
 There are       21 alpha and       21 beta electrons
 Applying Cartesian multipole field
    Component          Value
    ---------          -----
     (2,0,0)        1.00000E-11
     (0,2,0)        2.00000E-10
     (0,0,2)       -3.00000E-11
 Nucleus-field energy     =    -0.0000000114 hartrees
 Requested basis set is 6-31G(d,p)
 There are 30 shells and 100 basis functions
 A cutoff of  1.0D-11 yielded    313 shell pairs
 There are      3752 function pairs
 Smallest overlap matrix eigenvalue = 2.91E-03
 Guess MOs from SCF MO coefficient file

 -----------------------------------------------------------------------
  General SCF calculation program by
  Eric Jon Sundstrom, Paul Horn, Yuezhi Mao, Dmitri Zuev, Alec White,
  David Stuck, Shaama M.S., Shane Yost, Joonho Lee, David Small,
  Daniel Levine, Susi Lehtola, Hugh Burton, Evgeny Epifanovsky
 -----------------------------------------------------------------------
 Exchange:     0.2000 Hartree-Fock + 0.0800 Slater + 0.7200 B88
 Correlation:  0.1900 VWN1RPA + 0.8100 LYP
 Using SG-1 standard quadrature grid
 using 8 threads for integral computing
 -------------------------------------------------------
 OpenMP Integral computing Module                
 Release: version 1.0, May 2013, Q-Chem Inc. Pittsburgh 
 -------------------------------------------------------
 -------------------------------------------------------
 OpenMP BLAS3 based DFT computing Module                
 Release: version 1.0, May 2013, Q-Chem Inc. Pittsburgh 
 -------------------------------------------------------
 A restricted SCF calculation will be
 performed using DIIS
 SCF converges when DIIS error is below 1.0e-08
 ---------------------------------------
  Cycle       Energy         DIIS error
 ---------------------------------------
    1    -296.3721939293      3.28e-04  
    2    -296.3723424738      1.38e-04  
    3    -296.3723538077      1.06e-04  
    4    -296.3723606367      7.44e-05  
    5    -296.3723665706      3.24e-06  
    6    -296.3723665845      9.78e-07  
    7    -296.3723665856      1.96e-07  
    8    -296.3723665857      2.79e-08  
    9    -296.3723665857      4.04e-09  Convergence criterion met
 ---------------------------------------
 SCF time:   CPU 4.50s  wall 1.00s 
 SCF   energy in the final basis set =     -296.3723665857
 Total energy in the final basis set =     -296.3723665857
 
 --------------------------------------------------------------
 
                    Orbital Energies (a.u.)
 --------------------------------------------------------------
 
 Alpha MOs
 -- Occupied --
-14.445 -14.443 -14.352 -14.352 -10.237 -10.237  -1.125  -0.913
 -0.913  -0.600  -0.600  -0.552  -0.463  -0.462  -0.427  -0.372
 -0.370  -0.352  -0.352  -0.352  -0.352
 -- Virtual --
 -0.022  -0.022   0.027   0.028   0.028   0.029   0.089   0.089
  0.278   0.286   0.408   0.506   0.527   0.527   0.530   0.591
  0.607   0.615   0.622   0.658   0.667   0.700   0.700   0.752
  0.763   0.771   0.777   0.782   0.789   0.796   0.811   0.821
  1.090   1.091   1.246   1.438   1.446   1.447   1.447   1.448
  1.450   1.458   1.465   1.514   1.514   1.514   1.514   1.552
  1.553   1.943   1.943   1.959   1.959   1.959   1.959   2.118
  2.119   2.119   2.121   2.392   2.407   2.410   2.598   2.601
  2.826   2.849   2.853   2.853   2.854   2.859   2.892   3.294
  3.533   3.533   3.595   3.864   3.865   4.706   4.711
 --------------------------------------------------------------
 
          Ground-State Mulliken Net Atomic Charges

     Atom                 Charge (a.u.)
  ----------------------------------------
      1 N                     0.000001
      2 N                     0.000000
      3 C                     0.155885
      4 C                     0.155886
      5 N                    -0.361575
      6 N                    -0.361576
      7 H                     0.205690
      8 H                     0.205689
  ----------------------------------------
  Sum of atomic charges =    -0.000000

 -----------------------------------------------------------------
                    Cartesian Multipole Moments
 -----------------------------------------------------------------
    Charge (ESU x 10^10)
                -0.0000
    Dipole Moment (Debye)
         X      -3.4530      Y      -0.0000      Z       0.0000
       Tot       3.4530
    Quadrupole Moments (Debye-Ang)
        XX     -56.4487     XY      -0.0000     YY     -32.7941
        XZ      -2.0718     YZ      -0.0000     ZZ      -8.2763
    Octopole Moments (Debye-Ang^2)
       XXX    -372.6535    XXY      -0.0000    XYY     -83.1969
       YYY       0.0000    XXZ     -33.8692    XYZ      -0.0000
       YYZ     -19.6765    XZZ     -30.0807    YZZ      -0.0000
       ZZZ     -14.8974
    Hexadecapole Moments (Debye-Ang^3)
      XXXX   -2401.4619   XXXY      -0.0000   XXYY    -308.2604
      XYYY       0.0000   YYYY     -28.5393   XXXZ    -223.5921
      XXYZ      -0.0000   XYYZ     -49.9181   YYYZ       0.0000
      XXZZ    -412.2876   XYZZ      -0.0000   YYZZ    -193.2479
      XZZZ     -52.6535   YZZZ      -0.0000   ZZZZ    -570.0819
 -----------------------------------------------------------------
 Calculating analytic gradient of the SCF energy
 Gradient of SCF Energy
            1           2           3           4           5           6
    1  -0.0002136  -0.0002136   0.0051545   0.0051545  -0.0048106  -0.0048106
    2  -0.0000000   0.0000000   0.0000000  -0.0000000  -0.0000000  -0.0000000
    3   0.0120597  -0.0120597   0.0050671  -0.0050671  -0.0051897   0.0051897
            7           8
    1  -0.0001302  -0.0001303
    2   0.0000000   0.0000000
    3   0.0003112  -0.0003112
 Max gradient component =       1.206E-02
 RMS gradient           =       4.545E-03
 Gradient time:  CPU 2.77 s  wall 0.35 s
 Geometry Optimization Parameters
   NAtoms,    NIC,     NZ,  NCons,   NDum,   NFix, NCnnct, MaxDiis
        8      97       0       0       0       0       0       0

 Cartesian Hessian Update
 Hessian Updated using BFGS Update


** GEOMETRY OPTIMIZATION IN DELOCALIZED INTERNAL COORDINATES **
   Searching for a Minimum

   Optimization Cycle:   4

                       Coordinates (Angstroms)
     ATOM                X               Y               Z
      1  N         0.1307650935    0.0000000000    0.0492658852
      2  N         0.1307650952    0.0000000000    1.1507341101
      3  C         3.2872860789    0.0000000000   -2.4733381797
      4  C         3.2872860782    0.0000000000    3.6733381852
      5  N         3.9906427607    0.0000000000   -1.5579331074
      6  N         3.9906427550    0.0000000000    2.7579331149
      7  H         2.6257516233    0.0000000000   -3.3126136019
      8  H         2.6257516311    0.0000000000    4.5126135969
   Point Group: c1    Number of degrees of freedom:    18


   Energy is   -296.372366586

 Hessian Updated using BFGS Update

  7 Hessian modes will be used to form the next step
  Hessian Eigenvalues:
     0.005728    0.016048    0.079114    0.174670    0.359396    1.225496
     1.644416

 Minimum Search - Taking Simple RFO Step
 Searching for Lamda that Minimizes Along All modes
 Value Taken    Lamda =  -0.00020536
 Step Taken.  Stepsize is  0.035865

                             Maximum     Tolerance    Cnvgd?
         Gradient           0.007368      0.000300      NO
         Displacement       0.026122      0.001200      NO
         Energy change     -0.000656      0.000001      NO


 New Cartesian Coordinates Obtained by Inverse Iteration

 Displacement from previous Coordinates is:  0.044187
 ----------------------------------------------------------------
             Standard Nuclear Orientation (Angstroms)
    I     Atom           X                Y                Z
 ----------------------------------------------------------------
    1      N       0.1375396840     0.0000000000     0.0466668144
    2      N       0.1375396857     0.0000000000     1.1533331790
    3      C       3.2846904567     0.0000000000    -2.4808855397
    4      C       3.2846904516     0.0000000000     3.6808855506
    5      N       3.9919305784     0.0000000000    -1.5653090772
    6      N       3.9919305689     0.0000000000     2.7653090916
    7      H       2.6202848364     0.0000000000    -3.3210444836
    8      H       2.6202848542     0.0000000000     4.5210444683
 ----------------------------------------------------------------
 Nuclear Repulsion Energy =   137.6243687364 hartrees
 There are       21 alpha and       21 beta electrons
 Applying Cartesian multipole field
    Component          Value
    ---------          -----
     (2,0,0)        1.00000E-11
     (0,2,0)        2.00000E-10
     (0,0,2)       -3.00000E-11
 Nucleus-field energy     =    -0.0000000115 hartrees
 Requested basis set is 6-31G(d,p)
 There are 30 shells and 100 basis functions
 A cutoff of  1.0D-11 yielded    313 shell pairs
 There are      3752 function pairs
 Smallest overlap matrix eigenvalue = 2.94E-03
 Guess MOs from SCF MO coefficient file

 -----------------------------------------------------------------------
  General SCF calculation program by
  Eric Jon Sundstrom, Paul Horn, Yuezhi Mao, Dmitri Zuev, Alec White,
  David Stuck, Shaama M.S., Shane Yost, Joonho Lee, David Small,
  Daniel Levine, Susi Lehtola, Hugh Burton, Evgeny Epifanovsky
 -----------------------------------------------------------------------
 Exchange:     0.2000 Hartree-Fock + 0.0800 Slater + 0.7200 B88
 Correlation:  0.1900 VWN1RPA + 0.8100 LYP
 Using SG-1 standard quadrature grid
 using 8 threads for integral computing
 -------------------------------------------------------
 OpenMP Integral computing Module                
 Release: version 1.0, May 2013, Q-Chem Inc. Pittsburgh 
 -------------------------------------------------------
 -------------------------------------------------------
 OpenMP BLAS3 based DFT computing Module                
 Release: version 1.0, May 2013, Q-Chem Inc. Pittsburgh 
 -------------------------------------------------------
 A restricted SCF calculation will be
 performed using DIIS
 SCF converges when DIIS error is below 1.0e-08
 ---------------------------------------
  Cycle       Energy         DIIS error
 ---------------------------------------
    1    -296.3724182260      1.50e-04  
    2    -296.3724506728      6.18e-05  
    3    -296.3724543380      2.68e-05  
    4    -296.3724542075      2.95e-05  
    5    -296.3724551668      1.35e-06  
    6    -296.3724551689      3.87e-07  
    7    -296.3724551691      7.29e-08  
    8    -296.3724551691      1.36e-08  
    9    -296.3724551691      1.39e-08  
   10    -296.3724551691      7.76e-10  Convergence criterion met
 ---------------------------------------
 SCF time:   CPU 5.01s  wall 1.00s 
 SCF   energy in the final basis set =     -296.3724551691
 Total energy in the final basis set =     -296.3724551691
 
 --------------------------------------------------------------
 
                    Orbital Energies (a.u.)
 --------------------------------------------------------------
 
 Alpha MOs
 -- Occupied --
-14.446 -14.445 -14.353 -14.353 -10.238 -10.238  -1.122  -0.912
 -0.912  -0.600  -0.600  -0.553  -0.461  -0.461  -0.427  -0.372
 -0.370  -0.352  -0.352  -0.351  -0.351
 -- Virtual --
 -0.024  -0.024   0.026   0.027   0.028   0.029   0.088   0.088
  0.279   0.286   0.406   0.507   0.527   0.527   0.530   0.592
  0.608   0.616   0.623   0.659   0.666   0.699   0.699   0.752
  0.762   0.771   0.776   0.781   0.784   0.794   0.810   0.819
  1.085   1.086   1.241   1.437   1.444   1.445   1.446   1.448
  1.452   1.458   1.464   1.514   1.514   1.514   1.514   1.548
  1.548   1.939   1.940   1.957   1.957   1.957   1.957   2.116
  2.116   2.117   2.119   2.386   2.400   2.405   2.593   2.596
  2.816   2.845   2.848   2.848   2.850   2.854   2.886   3.293
  3.527   3.527   3.591   3.860   3.861   4.696   4.701
 --------------------------------------------------------------
 
          Ground-State Mulliken Net Atomic Charges

     Atom                 Charge (a.u.)
  ----------------------------------------
      1 N                    -0.000005
      2 N                    -0.000005
      3 C                     0.155213
      4 C                     0.155213
      5 N                    -0.361461
      6 N                    -0.361461
      7 H                     0.206253
      8 H                     0.206253
  ----------------------------------------
  Sum of atomic charges =    -0.000000

 -----------------------------------------------------------------
                    Cartesian Multipole Moments
 -----------------------------------------------------------------
    Charge (ESU x 10^10)
                -0.0000
    Dipole Moment (Debye)
         X      -3.4662      Y      -0.0000      Z      -0.0000
       Tot       3.4662
    Quadrupole Moments (Debye-Ang)
        XX     -56.5562     XY      -0.0000     YY     -32.8317
        XZ      -2.0797     YZ      -0.0000     ZZ      -8.2273
    Octopole Moments (Debye-Ang^2)
       XXX    -373.3065    XXY      -0.0000    XYY     -83.3219
       YYY      -0.0000    XXZ     -33.9337    XYZ       0.0000
       YYZ     -19.6990    XZZ     -30.3778    YZZ      -0.0000
       ZZZ     -14.8091
    Hexadecapole Moments (Debye-Ang^3)
      XXXX   -2403.5624   XXXY      -0.0000   XXYY    -308.4529
      XYYY      -0.0000   YYYY     -28.6004   XXXZ    -223.9839
      XXYZ       0.0000   XYYZ     -49.9932   YYYZ       0.0000
      XXZZ    -415.1905   XYZZ      -0.0000   YYZZ    -194.4217
      XZZZ     -53.1826   YZZZ      -0.0000   ZZZZ    -572.4172
 -----------------------------------------------------------------
 Calculating analytic gradient of the SCF energy
 Gradient of SCF Energy
            1           2           3           4           5           6
    1  -0.0002115  -0.0002115   0.0024664   0.0024664  -0.0010167  -0.0010167
    2  -0.0000000   0.0000000  -0.0000000   0.0000000   0.0000000  -0.0000000
    3  -0.0038507   0.0038507   0.0016399  -0.0016399  -0.0002902   0.0002902
            7           8
    1  -0.0012382  -0.0012382
    2  -0.0000000   0.0000000
    3  -0.0011496   0.0011496
 Max gradient component =       3.851E-03
 RMS gradient           =       1.517E-03
 Gradient time:  CPU 2.75 s  wall 0.35 s
 Geometry Optimization Parameters
   NAtoms,    NIC,     NZ,  NCons,   NDum,   NFix, NCnnct, MaxDiis
        8      97       0       0       0       0       0       0

 Cartesian Hessian Update
 Hessian Updated using BFGS Update


** GEOMETRY OPTIMIZATION IN DELOCALIZED INTERNAL COORDINATES **
   Searching for a Minimum

   Optimization Cycle:   5

                       Coordinates (Angstroms)
     ATOM                X               Y               Z
      1  N         0.1375396840    0.0000000000    0.0466668144
      2  N         0.1375396857    0.0000000000    1.1533331790
      3  C         3.2846904567    0.0000000000   -2.4808855397
      4  C         3.2846904516    0.0000000000    3.6808855506
      5  N         3.9919305784    0.0000000000   -1.5653090772
      6  N         3.9919305689    0.0000000000    2.7653090916
      7  H         2.6202848364    0.0000000000   -3.3210444836
      8  H         2.6202848542    0.0000000000    4.5210444683
   Point Group: c1    Number of degrees of freedom:    18


   Energy is   -296.372455169

 Hessian Updated using BFGS Update

  7 Hessian modes will be used to form the next step
  Hessian Eigenvalues:
     0.005720    0.013980    0.079142    0.170421    0.418484    1.411552
     1.634889

 Minimum Search - Taking Simple RFO Step
 Searching for Lamda that Minimizes Along All modes
 Value Taken    Lamda =  -0.00003767
 Step Taken.  Stepsize is  0.032024

                             Maximum     Tolerance    Cnvgd?
         Gradient           0.002800      0.000300      NO
         Displacement       0.017570      0.001200      NO
         Energy change     -0.000089      0.000001      NO


 New Cartesian Coordinates Obtained by Inverse Iteration

 Displacement from previous Coordinates is:  0.030880
 ----------------------------------------------------------------
             Standard Nuclear Orientation (Angstroms)
    I     Atom           X                Y                Z
 ----------------------------------------------------------------
    1      N       0.1445573516     0.0000000000     0.0471634293
    2      N       0.1445573537     0.0000000000     1.1528365687
    3      C       3.2815037225     0.0000000000    -2.4854449608
    4      C       3.2815037240     0.0000000000     3.6854449617
    5      N       3.9916713049     0.0000000000    -1.5713163073
    6      N       3.9916713004     0.0000000000     2.7713163109
    7      H       2.6167131787     0.0000000000    -3.3230860000
    8      H       2.6167131801     0.0000000000     4.5230860008
 ----------------------------------------------------------------
 Nuclear Repulsion Energy =   137.6360370005 hartrees
 There are       21 alpha and       21 beta electrons
 Applying Cartesian multipole field
    Component          Value
    ---------          -----
     (2,0,0)        1.00000E-11
     (0,2,0)        2.00000E-10
     (0,0,2)       -3.00000E-11
 Nucleus-field energy     =    -0.0000000116 hartrees
 Requested basis set is 6-31G(d,p)
 There are 30 shells and 100 basis functions
 A cutoff of  1.0D-11 yielded    311 shell pairs
 There are      3740 function pairs
 Smallest overlap matrix eigenvalue = 2.94E-03
 Guess MOs from SCF MO coefficient file

 -----------------------------------------------------------------------
  General SCF calculation program by
  Eric Jon Sundstrom, Paul Horn, Yuezhi Mao, Dmitri Zuev, Alec White,
  David Stuck, Shaama M.S., Shane Yost, Joonho Lee, David Small,
  Daniel Levine, Susi Lehtola, Hugh Burton, Evgeny Epifanovsky
 -----------------------------------------------------------------------
 Exchange:     0.2000 Hartree-Fock + 0.0800 Slater + 0.7200 B88
 Correlation:  0.1900 VWN1RPA + 0.8100 LYP
 Using SG-1 standard quadrature grid
 using 8 threads for integral computing
 -------------------------------------------------------
 OpenMP Integral computing Module                
 Release: version 1.0, May 2013, Q-Chem Inc. Pittsburgh 
 -------------------------------------------------------
 -------------------------------------------------------
 OpenMP BLAS3 based DFT computing Module                
 Release: version 1.0, May 2013, Q-Chem Inc. Pittsburgh 
 -------------------------------------------------------
 A restricted SCF calculation will be
 performed using DIIS
 SCF converges when DIIS error is below 1.0e-08
 ---------------------------------------
  Cycle       Energy         DIIS error
 ---------------------------------------
    1    -296.3724715417      7.66e-05  
    2    -296.3724825998      3.04e-05  
    3    -296.3724801267      5.70e-05  
    4    -296.3724836470      6.41e-06  
    5    -296.3724836939      6.33e-07  
    6    -296.3724836945      1.44e-07  
    7    -296.3724836945      3.57e-08  
    8    -296.3724836945      5.43e-09  Convergence criterion met
 ---------------------------------------
 SCF time:   CPU 4.01s  wall 1.00s 
 SCF   energy in the final basis set =     -296.3724836945
 Total energy in the final basis set =     -296.3724836945
 
 --------------------------------------------------------------
 
                    Orbital Energies (a.u.)
 --------------------------------------------------------------
 
 Alpha MOs
 -- Occupied --
-14.446 -14.444 -14.353 -14.353 -10.238 -10.238  -1.123  -0.912
 -0.912  -0.600  -0.600  -0.553  -0.461  -0.461  -0.427  -0.372
 -0.371  -0.351  -0.351  -0.351  -0.351
 -- Virtual --
 -0.024  -0.024   0.026   0.027   0.027   0.028   0.088   0.088
  0.279   0.286   0.406   0.506   0.527   0.527   0.531   0.592
  0.607   0.616   0.624   0.659   0.665   0.698   0.699   0.752
  0.763   0.771   0.776   0.781   0.785   0.794   0.810   0.820
  1.086   1.086   1.242   1.437   1.444   1.445   1.445   1.448
  1.451   1.457   1.463   1.514   1.514   1.514   1.514   1.548
  1.549   1.940   1.940   1.957   1.957   1.957   1.957   2.116
  2.117   2.117   2.119   2.387   2.401   2.406   2.594   2.597
  2.818   2.846   2.849   2.849   2.851   2.855   2.886   3.293
  3.529   3.529   3.592   3.860   3.861   4.699   4.703
 --------------------------------------------------------------
 
          Ground-State Mulliken Net Atomic Charges

     Atom                 Charge (a.u.)
  ----------------------------------------
      1 N                    -0.000006
      2 N                    -0.000006
      3 C                     0.155589
      4 C                     0.155589
      5 N                    -0.361670
      6 N                    -0.361670
      7 H                     0.206087
      8 H                     0.206087
  ----------------------------------------
  Sum of atomic charges =    -0.000000

 -----------------------------------------------------------------
                    Cartesian Multipole Moments
 -----------------------------------------------------------------
    Charge (ESU x 10^10)
                -0.0000
    Dipole Moment (Debye)
         X      -3.4747      Y      -0.0000      Z       0.0000
       Tot       3.4747
    Quadrupole Moments (Debye-Ang)
        XX     -56.5992     XY      -0.0000     YY     -32.8289
        XZ      -2.0848     YZ       0.0000     ZZ      -8.2464
    Octopole Moments (Debye-Ang^2)
       XXX    -373.5969    XXY      -0.0000    XYY     -83.3555
       YYY      -0.0000    XXZ     -33.9595    XYZ      -0.0000
       YYZ     -19.6973    XZZ     -30.6902    YZZ      -0.0000
       ZZZ     -14.8435
    Hexadecapole Moments (Debye-Ang^3)
      XXXX   -2402.9484   XXXY      -0.0000   XXYY    -308.2306
      XYYY      -0.0000   YYYY     -28.5975   XXXZ    -224.1582
      XXYZ      -0.0000   XYYZ     -50.0133   YYYZ       0.0000
      XXZZ    -416.9485   XYZZ      -0.0000   YYZZ    -194.9912
      XZZZ     -53.7413   YZZZ       0.0000   ZZZZ    -575.2568
 -----------------------------------------------------------------
 Calculating analytic gradient of the SCF energy
 Gradient of SCF Energy
            1           2           3           4           5           6
    1  -0.0002108  -0.0002108   0.0005724   0.0005724   0.0000168   0.0000168
    2   0.0000000  -0.0000000   0.0000000  -0.0000000  -0.0000000  -0.0000000
    3  -0.0008576   0.0008576  -0.0006807   0.0006807   0.0010131  -0.0010131
            7           8
    1  -0.0003784  -0.0003784
    2  -0.0000000   0.0000000
    3  -0.0001148   0.0001148
 Max gradient component =       1.013E-03
 RMS gradient           =       4.790E-04
 Gradient time:  CPU 2.77 s  wall 0.35 s
 Geometry Optimization Parameters
   NAtoms,    NIC,     NZ,  NCons,   NDum,   NFix, NCnnct, MaxDiis
        8      97       0       0       0       0       0       0

 Cartesian Hessian Update
 Hessian Updated using BFGS Update


** GEOMETRY OPTIMIZATION IN DELOCALIZED INTERNAL COORDINATES **
   Searching for a Minimum

   Optimization Cycle:   6

                       Coordinates (Angstroms)
     ATOM                X               Y               Z
      1  N         0.1445573516    0.0000000000    0.0471634293
      2  N         0.1445573537    0.0000000000    1.1528365687
      3  C         3.2815037225    0.0000000000   -2.4854449608
      4  C         3.2815037240    0.0000000000    3.6854449617
      5  N         3.9916713049    0.0000000000   -1.5713163073
      6  N         3.9916713004    0.0000000000    2.7713163109
      7  H         2.6167131787    0.0000000000   -3.3230860000
      8  H         2.6167131801    0.0000000000    4.5230860008
   Point Group: c1    Number of degrees of freedom:    18


   Energy is   -296.372483694

 Hessian Updated using BFGS Update

  7 Hessian modes will be used to form the next step
  Hessian Eigenvalues:
     0.004872    0.006782    0.079157    0.159738    0.434274    1.527872
     1.820446

 Minimum Search - Taking Simple RFO Step
 Searching for Lamda that Minimizes Along All modes
 Value Taken    Lamda =  -0.00005172
 Step Taken.  Stepsize is  0.092646

                             Maximum     Tolerance    Cnvgd?
         Gradient           0.000964      0.000300      NO
         Displacement       0.046898      0.001200      NO
         Energy change     -0.000029      0.000001      NO


 New Cartesian Coordinates Obtained by Inverse Iteration

 Displacement from previous Coordinates is:  0.092085
 ----------------------------------------------------------------
             Standard Nuclear Orientation (Angstroms)
    I     Atom           X                Y                Z
 ----------------------------------------------------------------
    1      N       0.1647846215     0.0000000000     0.0476165248
    2      N       0.1647846250     0.0000000000     1.1523834889
    3      C       3.2732229824     0.0000000000    -2.4987221486
    4      C       3.2732229897     0.0000000000     3.6987221335
    5      N       3.9910874958     0.0000000000    -1.5895906908
    6      N       3.9910874953     0.0000000000     2.7895906771
    7      H       2.6053504652     0.0000000000    -3.3314317895
    8      H       2.6053504411     0.0000000000     4.5314318079
 ----------------------------------------------------------------
 Nuclear Repulsion Energy =   137.6306541562 hartrees
 There are       21 alpha and       21 beta electrons
 Applying Cartesian multipole field
    Component          Value
    ---------          -----
     (2,0,0)        1.00000E-11
     (0,2,0)        2.00000E-10
     (0,0,2)       -3.00000E-11
 Nucleus-field energy     =    -0.0000000119 hartrees
 Requested basis set is 6-31G(d,p)
 There are 30 shells and 100 basis functions
 A cutoff of  1.0D-11 yielded    311 shell pairs
 There are      3740 function pairs
 Smallest overlap matrix eigenvalue = 2.95E-03
 Guess MOs from SCF MO coefficient file

 -----------------------------------------------------------------------
  General SCF calculation program by
  Eric Jon Sundstrom, Paul Horn, Yuezhi Mao, Dmitri Zuev, Alec White,
  David Stuck, Shaama M.S., Shane Yost, Joonho Lee, David Small,
  Daniel Levine, Susi Lehtola, Hugh Burton, Evgeny Epifanovsky
 -----------------------------------------------------------------------
 Exchange:     0.2000 Hartree-Fock + 0.0800 Slater + 0.7200 B88
 Correlation:  0.1900 VWN1RPA + 0.8100 LYP
 Using SG-1 standard quadrature grid
 using 8 threads for integral computing
 -------------------------------------------------------
 OpenMP Integral computing Module                
 Release: version 1.0, May 2013, Q-Chem Inc. Pittsburgh 
 -------------------------------------------------------
 -------------------------------------------------------
 OpenMP BLAS3 based DFT computing Module                
 Release: version 1.0, May 2013, Q-Chem Inc. Pittsburgh 
 -------------------------------------------------------
 A restricted SCF calculation will be
 performed using DIIS
 SCF converges when DIIS error is below 1.0e-08
 ---------------------------------------
  Cycle       Energy         DIIS error
 ---------------------------------------
    1    -296.3724401571      1.96e-04  
    2    -296.3725227300      3.85e-05  
    3    -296.3725186532      7.56e-05  
    4    -296.3725247421      1.34e-05  
    5    -296.3725249439      1.52e-06  
    6    -296.3725249470      3.08e-07  
    7    -296.3725249471      5.43e-08  
    8    -296.3725249471      7.63e-09  Convergence criterion met
 ---------------------------------------
 SCF time:   CPU 4.01s  wall 1.00s 
 SCF   energy in the final basis set =     -296.3725249471
 Total energy in the final basis set =     -296.3725249471
 
 --------------------------------------------------------------
 
                    Orbital Energies (a.u.)
 --------------------------------------------------------------
 
 Alpha MOs
 -- Occupied --
-14.446 -14.444 -14.353 -14.353 -10.238 -10.238  -1.123  -0.912
 -0.912  -0.601  -0.601  -0.553  -0.462  -0.461  -0.427  -0.373
 -0.371  -0.351  -0.351  -0.351  -0.351
 -- Virtual --
 -0.023  -0.023   0.026   0.026   0.027   0.028   0.089   0.089
  0.279   0.285   0.406   0.505   0.527   0.527   0.531   0.592
  0.607   0.616   0.626   0.660   0.664   0.697   0.698   0.752
  0.763   0.771   0.776   0.780   0.785   0.793   0.811   0.821
  1.086   1.087   1.243   1.438   1.444   1.444   1.444   1.447
  1.451   1.457   1.462   1.514   1.514   1.514   1.515   1.549
  1.550   1.941   1.941   1.956   1.956   1.956   1.956   2.116
  2.117   2.117   2.119   2.389   2.402   2.407   2.595   2.598
  2.820   2.847   2.850   2.850   2.852   2.855   2.884   3.293
  3.531   3.532   3.592   3.859   3.860   4.701   4.705
 --------------------------------------------------------------
 
          Ground-State Mulliken Net Atomic Charges

     Atom                 Charge (a.u.)
  ----------------------------------------
      1 N                    -0.000008
      2 N                    -0.000008
      3 C                     0.156120
      4 C                     0.156120
      5 N                    -0.362057
      6 N                    -0.362057
      7 H                     0.205945
      8 H                     0.205945
  ----------------------------------------
  Sum of atomic charges =    -0.000000

 -----------------------------------------------------------------
                    Cartesian Multipole Moments
 -----------------------------------------------------------------
    Charge (ESU x 10^10)
                -0.0000
    Dipole Moment (Debye)
         X      -3.5033      Y       0.0000      Z      -0.0000
       Tot       3.5033
    Quadrupole Moments (Debye-Ang)
        XX     -56.7547     XY       0.0000     YY     -32.8268
        XZ      -2.1020     YZ      -0.0000     ZZ      -8.2618
    Octopole Moments (Debye-Ang^2)
       XXX    -374.5834    XXY       0.0000    XYY     -83.4578
       YYY       0.0000    XXZ     -34.0528    XYZ      -0.0000
       YYZ     -19.6961    XZZ     -31.5486    YZZ       0.0000
       ZZZ     -14.8713
    Hexadecapole Moments (Debye-Ang^3)
      XXXX   -2402.1045   XXXY       0.0000   XXYY    -307.6367
      XYYY       0.0000   YYYY     -28.5957   XXXZ    -224.7500
      XXYZ      -0.0000   XYYZ     -50.0747   YYYZ      -0.0000
      XXZZ    -422.2382   XYZZ       0.0000   YYZZ    -196.7767
      XZZZ     -55.2740   YZZZ      -0.0000   ZZZZ    -582.7403
 -----------------------------------------------------------------
 Calculating analytic gradient of the SCF energy
 Gradient of SCF Energy
            1           2           3           4           5           6
    1  -0.0002081  -0.0002081  -0.0017942  -0.0017942   0.0013610   0.0013610
    2   0.0000000  -0.0000000   0.0000000  -0.0000000  -0.0000000   0.0000000
    3   0.0018886  -0.0018886  -0.0033739   0.0033739   0.0026100  -0.0026100
            7           8
    1   0.0006413   0.0006413
    2  -0.0000000  -0.0000000
    3   0.0010139  -0.0010138
 Max gradient component =       3.374E-03
 RMS gradient           =       1.536E-03
 Gradient time:  CPU 2.77 s  wall 0.35 s
 Geometry Optimization Parameters
   NAtoms,    NIC,     NZ,  NCons,   NDum,   NFix, NCnnct, MaxDiis
        8      97       0       0       0       0       0       0

 Cartesian Hessian Update
 Hessian Updated using BFGS Update


** GEOMETRY OPTIMIZATION IN DELOCALIZED INTERNAL COORDINATES **
   Searching for a Minimum

   Optimization Cycle:   7

                       Coordinates (Angstroms)
     ATOM                X               Y               Z
      1  N         0.1647846215    0.0000000000    0.0476165248
      2  N         0.1647846250    0.0000000000    1.1523834889
      3  C         3.2732229824    0.0000000000   -2.4987221486
      4  C         3.2732229897    0.0000000000    3.6987221335
      5  N         3.9910874958    0.0000000000   -1.5895906908
      6  N         3.9910874953    0.0000000000    2.7895906771
      7  H         2.6053504652    0.0000000000   -3.3314317895
      8  H         2.6053504411    0.0000000000    4.5314318079
   Point Group: c1    Number of degrees of freedom:    18


   Energy is   -296.372524947

 Hessian Updated using BFGS Update

  7 Hessian modes will be used to form the next step
  Hessian Eigenvalues:
     0.001390    0.005988    0.079157    0.157352    0.493582    1.500317
     2.688876

 Minimum Search - Taking Simple RFO Step
 Searching for Lamda that Minimizes Along All modes
 Value Taken    Lamda =  -0.00011520
 Step Taken.  Stepsize is  0.266399

                             Maximum     Tolerance    Cnvgd?
         Gradient           0.003597      0.000300      NO
         Displacement       0.138144      0.001200      NO
         Energy change     -0.000041      0.000001      NO


 New Cartesian Coordinates Obtained by Inverse Iteration

 Displacement from previous Coordinates is:  0.267833
 ----------------------------------------------------------------
             Standard Nuclear Orientation (Angstroms)
    I     Atom           X                Y                Z
 ----------------------------------------------------------------
    1      N       0.2232167635     0.0000000000     0.0482184895
    2      N       0.2232167711     0.0000000000     1.1517815686
    3      C       3.2503384597     0.0000000000    -2.5366513540
    4      C       3.2503384714     0.0000000000     3.7366513081
    5      N       3.9893946843     0.0000000000    -1.6431812189
    6      N       3.9893946870     0.0000000000     2.8431811695
    7      H       2.5714956773     0.0000000000    -3.3568460214
    8      H       2.5714956016     0.0000000000     4.5568460621
 ----------------------------------------------------------------
 Nuclear Repulsion Energy =   137.6016666214 hartrees
 There are       21 alpha and       21 beta electrons
 Applying Cartesian multipole field
    Component          Value
    ---------          -----
     (2,0,0)        1.00000E-11
     (0,2,0)        2.00000E-10
     (0,0,2)       -3.00000E-11
 Nucleus-field energy     =    -0.0000000126 hartrees
 Requested basis set is 6-31G(d,p)
 There are 30 shells and 100 basis functions
 A cutoff of  1.0D-11 yielded    309 shell pairs
 There are      3732 function pairs
 Smallest overlap matrix eigenvalue = 2.96E-03
 Guess MOs from SCF MO coefficient file

 -----------------------------------------------------------------------
  General SCF calculation program by
  Eric Jon Sundstrom, Paul Horn, Yuezhi Mao, Dmitri Zuev, Alec White,
  David Stuck, Shaama M.S., Shane Yost, Joonho Lee, David Small,
  Daniel Levine, Susi Lehtola, Hugh Burton, Evgeny Epifanovsky
 -----------------------------------------------------------------------
 Exchange:     0.2000 Hartree-Fock + 0.0800 Slater + 0.7200 B88
 Correlation:  0.1900 VWN1RPA + 0.8100 LYP
 Using SG-1 standard quadrature grid
 using 8 threads for integral computing
 -------------------------------------------------------
 OpenMP Integral computing Module                
 Release: version 1.0, May 2013, Q-Chem Inc. Pittsburgh 
 -------------------------------------------------------
 -------------------------------------------------------
 OpenMP BLAS3 based DFT computing Module                
 Release: version 1.0, May 2013, Q-Chem Inc. Pittsburgh 
 -------------------------------------------------------
 A restricted SCF calculation will be
 performed using DIIS
 SCF converges when DIIS error is below 1.0e-08
 ---------------------------------------
  Cycle       Energy         DIIS error
 ---------------------------------------
    1    -296.3719228830      5.55e-04  
    2    -296.3726011230      7.87e-05  
    3    -296.3726034953      9.13e-05  
    4    -296.3726103008      4.72e-05  
    5    -296.3726127609      3.90e-06  
    6    -296.3726127799      6.77e-07  
    7    -296.3726127804      1.24e-07  
    8    -296.3726127804      1.53e-08  
    9    -296.3726127804      4.75e-09  Convergence criterion met
 ---------------------------------------
 SCF time:   CPU 4.51s  wall 1.00s 
 SCF   energy in the final basis set =     -296.3726127804
 Total energy in the final basis set =     -296.3726127804
 
 --------------------------------------------------------------
 
                    Orbital Energies (a.u.)
 --------------------------------------------------------------
 
 Alpha MOs
 -- Occupied --
-14.446 -14.444 -14.354 -14.354 -10.239 -10.239  -1.124  -0.912
 -0.912  -0.602  -0.602  -0.553  -0.462  -0.462  -0.427  -0.373
 -0.372  -0.352  -0.351  -0.351  -0.351
 -- Virtual --
 -0.023  -0.023   0.025   0.026   0.026   0.027   0.089   0.090
  0.279   0.284   0.405   0.503   0.526   0.527   0.532   0.592
  0.607   0.615   0.630   0.659   0.663   0.696   0.698   0.752
  0.764   0.772   0.776   0.779   0.784   0.793   0.811   0.823
  1.087   1.087   1.245   1.441   1.443   1.443   1.444   1.444
  1.451   1.456   1.459   1.514   1.514   1.514   1.515   1.550
  1.551   1.941   1.942   1.955   1.955   1.955   1.955   2.117
  2.117   2.117   2.119   2.391   2.402   2.409   2.596   2.599
  2.823   2.851   2.852   2.852   2.853   2.857   2.880   3.294
  3.534   3.535   3.594   3.858   3.859   4.705   4.708
 --------------------------------------------------------------
 
          Ground-State Mulliken Net Atomic Charges

     Atom                 Charge (a.u.)
  ----------------------------------------
      1 N                    -0.000013
      2 N                    -0.000012
      3 C                     0.157148
      4 C                     0.157147
      5 N                    -0.362946
      6 N                    -0.362946
      7 H                     0.205811
      8 H                     0.205811
  ----------------------------------------
  Sum of atomic charges =    -0.000000

 -----------------------------------------------------------------
                    Cartesian Multipole Moments
 -----------------------------------------------------------------
    Charge (ESU x 10^10)
                -0.0000
    Dipole Moment (Debye)
         X      -3.5894      Y       0.0000      Z      -0.0000
       Tot       3.5894
    Quadrupole Moments (Debye-Ang)
        XX     -57.2268     XY       0.0000     YY     -32.8234
        XZ      -2.1537     YZ       0.0000     ZZ      -8.2927
    Octopole Moments (Debye-Ang^2)
       XXX    -377.5273    XXY       0.0000    XYY     -83.7534
       YYY       0.0000    XXZ     -34.3361    XYZ       0.0000
       YYZ     -19.6941    XZZ     -34.0829    YZZ       0.0000
       ZZZ     -14.9268
    Hexadecapole Moments (Debye-Ang^3)
      XXXX   -2400.5600   XXXY      -0.0000   XXYY    -305.9941
      XYYY       0.0000   YYYY     -28.5922   XXXZ    -226.5164
      XXYZ       0.0000   XYYZ     -50.2520   YYYZ      -0.0000
      XXZZ    -438.0708   XYZZ       0.0000   YYZZ    -202.0617
      XZZZ     -59.7987   YZZZ       0.0000   ZZZZ    -604.3520
 -----------------------------------------------------------------
 Calculating analytic gradient of the SCF energy
 Gradient of SCF Energy
            1           2           3           4           5           6
    1  -0.0002016  -0.0002016  -0.0054733  -0.0054733   0.0034208   0.0034208
    2   0.0000000  -0.0000000   0.0000000  -0.0000000   0.0000000   0.0000000
    3   0.0055584  -0.0055584  -0.0069745   0.0069745   0.0046334  -0.0046333
            7           8
    1   0.0022542   0.0022541
    2  -0.0000000  -0.0000000
    3   0.0025501  -0.0025501
 Max gradient component =       6.975E-03
 RMS gradient           =       3.586E-03
 Gradient time:  CPU 2.77 s  wall 0.35 s
 Geometry Optimization Parameters
   NAtoms,    NIC,     NZ,  NCons,   NDum,   NFix, NCnnct, MaxDiis
        8      97       0       0       0       0       0       0

 Cartesian Hessian Update
 Hessian Updated using BFGS Update


** GEOMETRY OPTIMIZATION IN DELOCALIZED INTERNAL COORDINATES **
   Searching for a Minimum

   Optimization Cycle:   8

                       Coordinates (Angstroms)
     ATOM                X               Y               Z
      1  N         0.2232167635    0.0000000000    0.0482184895
      2  N         0.2232167711    0.0000000000    1.1517815686
      3  C         3.2503384597    0.0000000000   -2.5366513540
      4  C         3.2503384714    0.0000000000    3.7366513081
      5  N         3.9893946843    0.0000000000   -1.6431812189
      6  N         3.9893946870    0.0000000000    2.8431811695
      7  H         2.5714956773    0.0000000000   -3.3568460214
      8  H         2.5714956016    0.0000000000    4.5568460621
   Point Group: c1    Number of degrees of freedom:    18


   Energy is   -296.372612780

 Hessian Updated using BFGS Update

  8 Hessian modes will be used to form the next step
  Hessian Eigenvalues:
     0.000591    0.005995    0.079173    0.158303    0.520438    1.486764
     2.484798    3.172864

 Minimum Search - Taking Simple RFO Step
 Searching for Lamda that Minimizes Along All modes
 Value Taken    Lamda =  -0.00016053
 Calculated Step too Large.  Step scaled by  0.743251
 Step Taken.  Stepsize is  0.300000

                             Maximum     Tolerance    Cnvgd?
         Gradient           0.008200      0.000300      NO
         Displacement       0.154883      0.001200      NO
         Energy change     -0.000088      0.000001      NO


 New Cartesian Coordinates Obtained by Inverse Iteration

 Displacement from previous Coordinates is:  0.300806
 ----------------------------------------------------------------
             Standard Nuclear Orientation (Angstroms)
    I     Atom           X                Y                Z
 ----------------------------------------------------------------
    1      N       0.2906470599     0.0000000000     0.0484170381
    2      N       0.2906470720     0.0000000000     1.1515830681
    3      C       3.2249252644     0.0000000000    -2.5770990897
    4      C       3.2249252721     0.0000000000     3.7770990208
    5      N       3.9869037184     0.0000000000    -1.7026658328
    6      N       3.9869037186     0.0000000000     2.9026657552
    7      H       2.5319695630     0.0000000000    -3.3839271712
    8      H       2.5319694475     0.0000000000     4.5839272150
 ----------------------------------------------------------------
 Nuclear Repulsion Energy =   137.6058171757 hartrees
 There are       21 alpha and       21 beta electrons
 Applying Cartesian multipole field
    Component          Value
    ---------          -----
     (2,0,0)        1.00000E-11
     (0,2,0)        2.00000E-10
     (0,0,2)       -3.00000E-11
 Nucleus-field energy     =    -0.0000000135 hartrees
 Requested basis set is 6-31G(d,p)
 There are 30 shells and 100 basis functions
 A cutoff of  1.0D-11 yielded    307 shell pairs
 There are      3724 function pairs
 Smallest overlap matrix eigenvalue = 2.97E-03
 Guess MOs from SCF MO coefficient file

 -----------------------------------------------------------------------
  General SCF calculation program by
  Eric Jon Sundstrom, Paul Horn, Yuezhi Mao, Dmitri Zuev, Alec White,
  David Stuck, Shaama M.S., Shane Yost, Joonho Lee, David Small,
  Daniel Levine, Susi Lehtola, Hugh Burton, Evgeny Epifanovsky
 -----------------------------------------------------------------------
 Exchange:     0.2000 Hartree-Fock + 0.0800 Slater + 0.7200 B88
 Correlation:  0.1900 VWN1RPA + 0.8100 LYP
 Using SG-1 standard quadrature grid
 using 8 threads for integral computing
 -------------------------------------------------------
 OpenMP Integral computing Module                
 Release: version 1.0, May 2013, Q-Chem Inc. Pittsburgh 
 -------------------------------------------------------
 -------------------------------------------------------
 OpenMP BLAS3 based DFT computing Module                
 Release: version 1.0, May 2013, Q-Chem Inc. Pittsburgh 
 -------------------------------------------------------
 A restricted SCF calculation will be
 performed using DIIS
 SCF converges when DIIS error is below 1.0e-08
 ---------------------------------------
  Cycle       Energy         DIIS error
 ---------------------------------------
    1    -296.3718403519      6.27e-04  
    2    -296.3727089692      8.03e-05  
    3    -296.3727216287      2.17e-05  
    4    -296.3727222405      9.15e-06  
    5    -296.3727222220      1.02e-05  
    6    -296.3727223361      5.81e-07  
    7    -296.3727223365      8.21e-08  
    8    -296.3727223365      1.87e-08  
    9    -296.3727223365      1.61e-08  
   10    -296.3727223365      2.70e-09  Convergence criterion met
 ---------------------------------------
 SCF time:   CPU 5.01s  wall 1.00s 
 SCF   energy in the final basis set =     -296.3727223365
 Total energy in the final basis set =     -296.3727223365
 
 --------------------------------------------------------------
 
                    Orbital Energies (a.u.)
 --------------------------------------------------------------
 
 Alpha MOs
 -- Occupied --
-14.446 -14.444 -14.354 -14.354 -10.239 -10.239  -1.124  -0.912
 -0.912  -0.603  -0.603  -0.553  -0.462  -0.462  -0.427  -0.373
 -0.372  -0.352  -0.352  -0.352  -0.352
 -- Virtual --
 -0.023  -0.023   0.025   0.025   0.025   0.026   0.090   0.090
  0.279   0.282   0.404   0.501   0.526   0.526   0.534   0.592
  0.607   0.615   0.634   0.654   0.666   0.694   0.698   0.752
  0.765   0.774   0.776   0.778   0.783   0.792   0.812   0.825
  1.087   1.087   1.246   1.441   1.442   1.442   1.443   1.444
  1.450   1.456   1.459   1.514   1.514   1.514   1.514   1.551
  1.551   1.942   1.942   1.955   1.955   1.955   1.955   2.117
  2.117   2.117   2.119   2.393   2.401   2.409   2.596   2.600
  2.824   2.852   2.852   2.852   2.853   2.859   2.877   3.294
  3.536   3.536   3.594   3.857   3.860   4.706   4.709
 --------------------------------------------------------------
 
          Ground-State Mulliken Net Atomic Charges

     Atom                 Charge (a.u.)
  ----------------------------------------
      1 N                    -0.000017
      2 N                    -0.000017
      3 C                     0.157945
      4 C                     0.157945
      5 N                    -0.363773
      6 N                    -0.363773
      7 H                     0.205845
      8 H                     0.205845
[...]
 Correlation:  0.1900 VWN1RPA + 0.8100 LYP
 Using SG-1 standard quadrature grid
 using 8 threads for integral computing
 -------------------------------------------------------
 OpenMP Integral computing Module                
 Release: version 1.0, May 2013, Q-Chem Inc. Pittsburgh 
 -------------------------------------------------------
 -------------------------------------------------------
 OpenMP BLAS3 based DFT computing Module                
 Release: version 1.0, May 2013, Q-Chem Inc. Pittsburgh 
 -------------------------------------------------------
 A restricted SCF calculation will be
 performed using DIIS
 SCF converges when DIIS error is below 1.0e-08
 ---------------------------------------
  Cycle       Energy         DIIS error
 ---------------------------------------
    1    -296.3766637277      4.68e-05  
    2    -296.3766683799      1.07e-05  
    3    -296.3766680658      2.08e-05  
    4    -296.3766685227      3.83e-06  
    5    -296.3766685390      8.74e-07  
    6    -296.3766685391      8.16e-07  
    7    -296.3766685398      6.06e-08  
    8    -296.3766685398      8.13e-09  Convergence criterion met
 ---------------------------------------
 SCF time:   CPU 3.95s  wall 1.00s 
 SCF   energy in the final basis set =     -296.3766685398
 Total energy in the final basis set =     -296.3766685398
 
 --------------------------------------------------------------
 
                    Orbital Energies (a.u.)
 --------------------------------------------------------------
 
 Alpha MOs
 -- Occupied --
-14.495 -14.493 -14.361 -14.360 -10.245 -10.245  -1.171  -0.920
 -0.920  -0.617  -0.608  -0.593  -0.508  -0.508  -0.477  -0.381
 -0.381  -0.360  -0.360  -0.360  -0.360
 -- Virtual --
 -0.071  -0.070   0.019   0.019   0.019   0.019   0.089   0.099
  0.283   0.288   0.515   0.515   0.517   0.517   0.531   0.567
  0.567   0.569   0.626   0.635   0.678   0.689   0.692   0.705
  0.706   0.745   0.770   0.770   0.775   0.775   1.048   1.059
  1.151   1.198   1.390   1.404   1.404   1.437   1.437   1.438
  1.438   1.499   1.501   1.506   1.506   1.506   1.506   1.542
  1.588   1.894   1.894   1.949   1.949   1.949   1.949   2.110
  2.110   2.110   2.110   2.359   2.385   2.407   2.546   2.547
  2.842   2.842   2.843   2.843   2.878   2.878   3.008   3.284
  3.526   3.590   3.632   3.918   3.974   4.698   4.718
 --------------------------------------------------------------
 
          Ground-State Mulliken Net Atomic Charges

     Atom                 Charge (a.u.)
  ----------------------------------------
      1 N                     0.018162
      2 N                     0.018174
      3 C                     0.184451
      4 C                     0.184486
      5 N                    -0.405667
      6 N                    -0.405691
      7 H                     0.203048
      8 H                     0.203038
  ----------------------------------------
  Sum of atomic charges =     0.000000

 -----------------------------------------------------------------
                    Cartesian Multipole Moments
 -----------------------------------------------------------------
    Charge (ESU x 10^10)
                 0.0000
    Dipole Moment (Debye)
         X      -0.6543      Y      -0.0000      Z       0.0003
       Tot       0.6543
    Quadrupole Moments (Debye-Ang)
        XX     -36.1923     XY      -0.0000     YY     -32.8091
        XZ      -0.3915     YZ      -0.0000     ZZ     -85.3939
    Octopole Moments (Debye-Ang^2)
       XXX    -262.1399    XXY      -0.0000    XYY     -83.0005
       YYY      -0.0000    XXZ     -21.7168    XYZ       0.0000
       YYZ     -19.6903    XZZ    -231.8756    YZZ      -0.0000
       ZZZ    -153.6944
    Hexadecapole Moments (Debye-Ang^3)
      XXXX   -1338.9488   XXXY      -0.0000   XXYY    -220.3508
      XYYY      -0.0000   YYYY     -28.5684   XXXZ    -157.3122
      XXYZ      -0.0000   XYYZ     -49.8134   YYYZ      -0.0000
      XXZZ   -1152.0207   XYZZ      -0.0000   YYZZ    -521.3928
      XZZZ    -417.0467   YZZZ      -0.0000   ZZZZ   -5261.0244
 -----------------------------------------------------------------
 Calculating analytic gradient of the SCF energy
 Gradient of SCF Energy
            1           2           3           4           5           6
    1  -0.0000217  -0.0000217   0.0000452  -0.0000856  -0.0000154   0.0000931
    2   0.0000000   0.0000000  -0.0000000   0.0000000   0.0000000  -0.0000000
    3   0.0000966  -0.0000961  -0.0005120  -0.0006948   0.0004047   0.0005947
            7           8
    1  -0.0000080   0.0000142
    2  -0.0000000  -0.0000000
    3   0.0001259   0.0000810
 Max gradient component =       6.948E-04
 RMS gradient           =       2.348E-04
 Gradient time:  CPU 2.74 s  wall 0.34 s
 Geometry Optimization Parameters
   NAtoms,    NIC,     NZ,  NCons,   NDum,   NFix, NCnnct, MaxDiis
        8      97       0       0       0       0       0       0

 Cartesian Hessian Update
 Hessian Updated using BFGS Update


** GEOMETRY OPTIMIZATION IN CARTESIAN COORDINATES **
   Searching for a Minimum

   Optimization Cycle:  94

                       Coordinates (Angstroms)
     ATOM                X               Y               Z
      1  N         2.3040898182    0.0000000000    0.0479486768
      2  N         2.3040896094    0.0000000000    1.1520529771
      3  C         2.5731594506    0.0000000000   -3.5062353285
      4  C         2.5731336025    0.0000000000    4.7060149177
      5  N         2.6979404417    0.0000000000   -4.6565157349
      6  N         2.6979600996    0.0000000000    5.8566974666
      7  H         2.4592573787    0.0000000000   -2.4421627222
      8  H         2.4592607153    0.0000000000    3.6421997507
   Point Group: c1    Number of degrees of freedom:    18


   Energy is   -296.376668540


 Translations and Rotations Projected Out of Hessian

 11 Hessian modes will be used to form the next step
  Hessian Eigenvalues:
     0.000918    0.001353    0.120490    0.458681    0.999999    1.000000
     1.000000    1.000004    2.896768    3.251860    4.126457

 Minimum Search - Taking Simple RFO Step
 Searching for Lamda that Minimizes Along All modes
 Value Taken    Lamda =   0.00000000
 Step Taken.  Stepsize is  0.003206

                             Maximum     Tolerance    Cnvgd?
         Gradient           0.000695      0.000300      NO
         Displacement       0.001297      0.001200      NO
         Energy change     -0.000000      0.000001     YES

 ----------------------------------------------------------------
             Standard Nuclear Orientation (Angstroms)
    I     Atom           X                Y                Z
 ----------------------------------------------------------------
    1      N       2.3036232631     0.0000000000     0.0479375448
    2      N       2.3036230456     0.0000000000     1.1520640461
    3      C       2.5733585097     0.0000000000    -3.5067003344
    4      C       2.5733570813     0.0000000000     4.7067011965
    5      N       2.6978495942     0.0000000000    -4.6571611130
    6      N       2.6978490666     0.0000000000     5.8571595527
    7      H       2.4596156880     0.0000000000    -2.4427987436
    8      H       2.4596148673     0.0000000000     3.6427978542
 ----------------------------------------------------------------
 Nuclear Repulsion Energy =   129.4705685185 hartrees
 There are       21 alpha and       21 beta electrons
 Applying Cartesian multipole field
    Component          Value
    ---------          -----
     (2,0,0)        1.00000E-11
     (0,2,0)        2.00000E-10
     (0,0,2)       -3.00000E-11
 Nucleus-field energy     =    -0.0000000576 hartrees
 Requested basis set is 6-31G(d,p)
 There are 30 shells and 100 basis functions
 A cutoff of  1.0D-11 yielded    284 shell pairs
 There are      3250 function pairs
 Smallest overlap matrix eigenvalue = 1.62E-03
 Guess MOs from SCF MO coefficient file

 -----------------------------------------------------------------------
  General SCF calculation program by
  Eric Jon Sundstrom, Paul Horn, Yuezhi Mao, Dmitri Zuev, Alec White,
  David Stuck, Shaama M.S., Shane Yost, Joonho Lee, David Small,
  Daniel Levine, Susi Lehtola, Hugh Burton, Evgeny Epifanovsky
 -----------------------------------------------------------------------
 Exchange:     0.2000 Hartree-Fock + 0.0800 Slater + 0.7200 B88
 Correlation:  0.1900 VWN1RPA + 0.8100 LYP
 Using SG-1 standard quadrature grid
 using 8 threads for integral computing
 -------------------------------------------------------
 OpenMP Integral computing Module                
 Release: version 1.0, May 2013, Q-Chem Inc. Pittsburgh 
 -------------------------------------------------------
 -------------------------------------------------------
 OpenMP BLAS3 based DFT computing Module                
 Release: version 1.0, May 2013, Q-Chem Inc. Pittsburgh 
 -------------------------------------------------------
 A restricted SCF calculation will be
 performed using DIIS
 SCF converges when DIIS error is below 1.0e-08
 ---------------------------------------
  Cycle       Energy         DIIS error
 ---------------------------------------
    1    -296.3766686644      9.12e-06  
    2    -296.3766687834      5.82e-06  
    3    -296.3766687688      6.96e-06  
    4    -296.3766688196      1.28e-06  
    5    -296.3766688214      3.90e-07  
    6    -296.3766688215      1.66e-07  
    7    -296.3766688216      9.84e-09  Convergence criterion met
 ---------------------------------------
 SCF time:   CPU 3.38s  wall 1.00s 
 SCF   energy in the final basis set =     -296.3766688216
 Total energy in the final basis set =     -296.3766688216
 
 --------------------------------------------------------------
 
                    Orbital Energies (a.u.)
 --------------------------------------------------------------
 
 Alpha MOs
 -- Occupied --
-14.495 -14.493 -14.360 -14.360 -10.245 -10.245  -1.171  -0.920
 -0.920  -0.617  -0.608  -0.593  -0.508  -0.508  -0.477  -0.381
 -0.381  -0.360  -0.360  -0.360  -0.360
 -- Virtual --
 -0.070  -0.070   0.019   0.019   0.019   0.019   0.089   0.099
  0.283   0.288   0.515   0.515   0.517   0.517   0.531   0.567
  0.567   0.569   0.625   0.635   0.677   0.689   0.692   0.705
  0.706   0.745   0.770   0.770   0.775   0.775   1.048   1.059
  1.151   1.197   1.390   1.404   1.404   1.437   1.438   1.438
  1.438   1.499   1.501   1.506   1.506   1.506   1.506   1.542
  1.588   1.894   1.894   1.949   1.949   1.949   1.949   2.110
  2.110   2.110   2.110   2.359   2.386   2.407   2.546   2.547
  2.842   2.842   2.843   2.843   2.878   2.879   3.008   3.284
  3.526   3.590   3.632   3.918   3.974   4.699   4.719
 --------------------------------------------------------------
 
          Ground-State Mulliken Net Atomic Charges

     Atom                 Charge (a.u.)
  ----------------------------------------
      1 N                     0.018148
      2 N                     0.018149
      3 C                     0.184453
      4 C                     0.184453
      5 N                    -0.405646
      6 N                    -0.405646
      7 H                     0.203045
      8 H                     0.203045
  ----------------------------------------
  Sum of atomic charges =     0.000000

 -----------------------------------------------------------------
                    Cartesian Multipole Moments
 -----------------------------------------------------------------
    Charge (ESU x 10^10)
                 0.0000
    Dipole Moment (Debye)
         X      -0.6533      Y       0.0000      Z      -0.0000
       Tot       0.6533
    Quadrupole Moments (Debye-Ang)
        XX     -36.1864     XY       0.0000     YY     -32.8086
        XZ      -0.3920     YZ      -0.0000     ZZ     -85.3995
    Octopole Moments (Debye-Ang^2)
       XXX    -262.1059    XXY       0.0000    XYY     -82.9963
       YYY       0.0000    XXZ     -21.7118    XYZ      -0.0000
       YYZ     -19.6852    XZZ    -231.8701    YZZ       0.0000
       ZZZ    -153.7191
    Hexadecapole Moments (Debye-Ang^3)
      XXXX   -1338.7734   XXXY       0.0000   XXYY    -220.3337
      XYYY       0.0000   YYYY     -28.5677   XXXZ    -157.2633
      XXYZ      -0.0000   XYYZ     -49.7977   YYYZ      -0.0000
      XXZZ   -1152.0583   XYZZ       0.0000   YYZZ    -521.4957
      XZZZ    -417.0840   YZZZ      -0.0000   ZZZZ   -5262.5283
 -----------------------------------------------------------------
 Calculating analytic gradient of the SCF energy
 Gradient of SCF Energy
            1           2           3           4           5           6
    1  -0.0000225  -0.0000225  -0.0000026  -0.0000019   0.0000205   0.0000199
    2  -0.0000000   0.0000000   0.0000000   0.0000000  -0.0000000  -0.0000000
    3   0.0000347  -0.0000347   0.0000015   0.0000055   0.0000358  -0.0000415
            7           8
    1   0.0000046   0.0000045
    2  -0.0000000  -0.0000000
    3  -0.0000213   0.0000200
 Max gradient component =       4.150E-05
 RMS gradient           =       1.846E-05
 Gradient time:  CPU 2.76 s  wall 0.35 s
 Geometry Optimization Parameters
   NAtoms,    NIC,     NZ,  NCons,   NDum,   NFix, NCnnct, MaxDiis
        8      97       0       0       0       0       0       0

 Cartesian Hessian Update
 Hessian Updated using BFGS Update


** GEOMETRY OPTIMIZATION IN CARTESIAN COORDINATES **
   Searching for a Minimum

   Optimization Cycle:  95

                       Coordinates (Angstroms)
     ATOM                X               Y               Z
      1  N         2.3036232631    0.0000000000    0.0479375448
      2  N         2.3036230456    0.0000000000    1.1520640461
      3  C         2.5733585097    0.0000000000   -3.5067003344
      4  C         2.5733570813    0.0000000000    4.7067011965
      5  N         2.6978495942    0.0000000000   -4.6571611130
      6  N         2.6978490666    0.0000000000    5.8571595527
      7  H         2.4596156880    0.0000000000   -2.4427987436
      8  H         2.4596148673    0.0000000000    3.6427978542
   Point Group: c1    Number of degrees of freedom:    18


   Energy is   -296.376668822


 Translations and Rotations Projected Out of Hessian

 11 Hessian modes will be used to form the next step
  Hessian Eigenvalues:
     0.000905    0.001366    0.118964    0.478317    0.999999    1.000000
     1.000000    1.000004    2.874130    3.278350    4.102092

 Minimum Search - Taking Simple RFO Step
 Searching for Lamda that Minimizes Along All modes
 Value Taken    Lamda =   0.00000000
 Step Taken.  Stepsize is  0.002280

                             Maximum     Tolerance    Cnvgd?
         Gradient           0.000042      0.000300     YES
         Displacement       0.000845      0.001200     YES
         Energy change     -0.000000      0.000001     YES


                       Distance Matrix (Angstroms)
             N (  1)   N (  2)   C (  3)   C (  4)   N (  5)   N (  6)
   N (  2)  1.104127
   C (  3)  3.564857  4.666566
   C (  4)  4.666566  3.564856  8.213402
   N (  5)  4.721585  5.822586  1.157177  9.364690
   N (  6)  5.822583  4.721582  9.364687  1.157174 10.514321
   H (  7)  2.495616  3.598246  1.069964  7.150405  2.227141  8.303377
   H (  8)  3.598243  2.495614  7.150403  1.069966  8.303377  2.227140
             H (  7)
   H (  8)  6.085597
 
 Final energy is   -296.376668821569     


 ******************************
 **  OPTIMIZATION CONVERGED  **
 ******************************

                       Coordinates (Angstroms)
     ATOM                X               Y               Z
      1  N         2.3036232631    0.0000000000    0.0479375448
      2  N         2.3036230456    0.0000000000    1.1520640461
      3  C         2.5733585097    0.0000000000   -3.5067003344
      4  C         2.5733570813    0.0000000000    4.7067011965
      5  N         2.6978495942    0.0000000000   -4.6571611130
      6  N         2.6978490666    0.0000000000    5.8571595527
      7  H         2.4596156880    0.0000000000   -2.4427987436
      8  H         2.4596148673    0.0000000000    3.6427978542

Z-matrix Print:
$molecule
0 1
N 
N  1 1.104127
H  1 2.495614 2 176.416300
C  3 1.069966 1 177.481359 2 -0.000000 0
N  4 1.157174 3 179.926340 1 -0.000916 0
H  2 2.495616 1 176.416312 3 -0.000000 0
C  6 1.069964 2 177.481327 1 -0.000000 0
N  7 1.157177 6 179.926440 2 -0.000000 0
$end

 
 --------------------------------------------------------------
 
                    Orbital Energies (a.u.)
 --------------------------------------------------------------
 
 Alpha MOs
 -- Occupied --
-14.495 -14.493 -14.360 -14.360 -10.245 -10.245  -1.171  -0.920
 -0.920  -0.617  -0.608  -0.593  -0.508  -0.508  -0.477  -0.381
 -0.381  -0.360  -0.360  -0.360  -0.360
 -- Virtual --
 -0.070  -0.070   0.019   0.019   0.019   0.019   0.089   0.099
  0.283   0.288   0.515   0.515   0.517   0.517   0.531   0.567
  0.567   0.569   0.625   0.635   0.677   0.689   0.692   0.705
  0.706   0.745   0.770   0.770   0.775   0.775   1.048   1.059
  1.151   1.197   1.390   1.404   1.404   1.437   1.438   1.438
  1.438   1.499   1.501   1.506   1.506   1.506   1.506   1.542
  1.588   1.894   1.894   1.949   1.949   1.949   1.949   2.110
  2.110   2.110   2.110   2.359   2.386   2.407   2.546   2.547
  2.842   2.842   2.843   2.843   2.878   2.879   3.008   3.284
  3.526   3.590   3.632   3.918   3.974   4.699   4.719
 --------------------------------------------------------------
 
          Ground-State Mulliken Net Atomic Charges

     Atom                 Charge (a.u.)
  ----------------------------------------
      1 N                     0.018148
      2 N                     0.018149
      3 C                     0.184453
      4 C                     0.184453
      5 N                    -0.405646
      6 N                    -0.405646
      7 H                     0.203045
      8 H                     0.203045
  ----------------------------------------
  Sum of atomic charges =     0.000000

 -----------------------------------------------------------------
                    Cartesian Multipole Moments
 -----------------------------------------------------------------
    Charge (ESU x 10^10)
                 0.0000
    Dipole Moment (Debye)
         X      -0.6533      Y       0.0000      Z      -0.0000
       Tot       0.6533
    Quadrupole Moments (Debye-Ang)
        XX     -36.1864     XY       0.0000     YY     -32.8086
        XZ      -0.3920     YZ      -0.0000     ZZ     -85.3995
    Octopole Moments (Debye-Ang^2)
       XXX    -262.1059    XXY       0.0000    XYY     -82.9963
       YYY       0.0000    XXZ     -21.7118    XYZ      -0.0000
       YYZ     -19.6852    XZZ    -231.8701    YZZ       0.0000
       ZZZ    -153.7191
    Hexadecapole Moments (Debye-Ang^3)
      XXXX   -1338.7734   XXXY       0.0000   XXYY    -220.3337
      XYYY       0.0000   YYYY     -28.5677   XXXZ    -157.2633
      XXYZ      -0.0000   XYYZ     -49.7977   YYYZ      -0.0000
      XXZZ   -1152.0583   XYZZ       0.0000   YYZZ    -521.4957
      XZZZ    -417.0840   YZZZ      -0.0000   ZZZZ   -5262.5283
 -----------------------------------------------------------------
Archival summary:
1\1\node1\OPT\ProcedureUnspecified\6-31G**\422\songzl\ThuApr615:07:322023ThuApr615:07:322023\0\\#,OPT,ProcedureUnspecified,6-31G**,\\0,1\N\N,1,1.10413\H,1,2.49561,2,176.416\C,3,1.06997,1,177.481,2,-0,0\N,4,1.15717,3,179.926,1,-0.000916417,0\H,2,2.49562,1,176.416,3,-0,0\C,6,1.06996,2,177.481,1,-0,0\N,7,1.15718,6,179.926,2,-0,0\\\@

 Total job time:  95.96s(wall), 757.71s(cpu) 
 Thu Apr  6 15:07:32 2023

        *************************************************************
        *                                                           *
        *  Thank you very much for using Q-Chem.  Have a nice day.  *
        *                                                           *
        *************************************************************


