
Running Job 1 of 1 qchem_batch_opt.inp
qchem qchem_batch_opt.inp_31773.0 /tmp/songzl/qchem_baker_set/qchem31773/ 1
/apps/apps/qchem/qc51/exe/qcprog.exe_s qchem_batch_opt.inp_31773.0 /tmp/songzl/qchem_baker_set/qchem31773/
Check license passed

                  Welcome to Q-Chem
     A Quantum Leap Into The Future Of Chemistry


 Q-Chem 5.1, Q-Chem, Inc., Pleasanton, CA (2018)

 Yihan Shao,  Zhengting Gan,  E. Epifanovsky,  A. T. B. Gilbert,  M. Wormit,  
 J. Kussmann,  A. W. Lange,  A. Behn,  Jia Deng,  Xintian Feng,  D. Ghosh,  
 M. Goldey,  P. R. Horn,  L. D. Jacobson,  I. Kaliman,  T. Kus,  A. Landau,  
 Jie Liu,  E. I. Proynov,  R. M. Richard,  R. P. Steele,  E. J. Sundstrom,  
 H. L. Woodcock III,  P. M. Zimmerman,  D. Zuev,  B. Albrecht,  E. Alguire,  
 S. A. Baeppler,  D. Barton,  Z. Benda,  Y. A. Bernard,  E. J. Berquist,  
 K. B. Bravaya,  H. Burton,  D. Casanova,  Chun-Min Chang,  Yunqing Chen,  
 A. Chien,  K. D. Closser,  M. P. Coons,  S. Coriani,  S. Dasgupta,  
 A. L. Dempwolff,  M. Diedenhofen,  Hainam Do,  R. G. Edgar,  Po-Tung Fang,  
 S. Faraji,  S. Fatehi,  Qingguo Feng,  K. D. Fenk,  J. Fosso-Tande,  
 Qinghui Ge,  A. Ghysels,  G. Gidofalvi,  J. Gomes,  J. Gonthier,  A. Gunina,  
 D. Hait,  M. W. D. Hanson-Heine,  P. H. P. Harbach,  A. W. Hauser,  
 J. E. Herr,  E. G. Hohenstein,  Z. C. Holden,  Kerwin Hui,  B. C. Huynh,  
 T.-C. Jagau,  Hyunjun Ji,  B. Kaduk,  K. Khistyaev,  Jaehoon Kim,  
 P. Klunzinger,  K. Koh,  D. Kosenkov,  L. Koulias,  T. Kowalczyk,  
 C. M. Krauter,  A. Kunitsa,  Ka Un Lao,  A. Laurent,  K. V. Lawler,  
 Joonho Lee,  D. Lefrancois,  S. Lehtola,  D. S. Levine,  Yi-Pei Li,  
 You-Sheng Lin,  Fenglai Liu,  E. Livshits,  A. Luenser,  P. Manohar,  
 E. Mansoor,  S. F. Manzer,  Shan-Ping Mao,  Yuezhi Mao,  N. Mardirossian,  
 A. V. Marenich,  T. Markovich,  L. A. Martinez-Martinez,  S. A. Maurer,  
 N. J. Mayhall,  S. C. McKenzie,  J.-M. Mewes,  A. F. Morrison,  
 J. W. Mullinax,  K. Nanda,  T. S. Nguyen-Beck,  R. Olivares-Amaya,  
 J. A. Parkhill,  T. M. Perrine,  F. Plasser,  P. Pokhilko,  S. Prager,  
 A. Prociuk,  E. Ramos,  D. R. Rehn,  F. Rob,  M. Schneider,  N. Sergueev,  
 S. M. Sharada,  S. Sharma,  D. W. Small,  T. Stauch,  T. Stein,  
 Yu-Chuan Su,  A. J. W. Thom,  A. Tkatchenko,  T. Tsuchimochi,  N. M. Tubman,  
 L. Vogt,  M. L. Vidal,  O. Vydrov,  M. A. Watson,  J. Wenzel,  
 M. de Wergifosse,  T. A. Wesolowski,  A. White,  J. Witte,  A. Yamada,  
 Jun Yang,  K. Yao,  S. Yeganeh,  S. R. Yost,  Zhi-Qiang You,  A. Zech,  
 Igor Ying Zhang,  Xing Zhang,  Yan Zhao,  Ying Zhu,  B. R. Brooks,  
 G. K. L. Chan,  C. J. Cramer,  M. S. Gordon,  W. J. Hehre,  A. Klamt,  
 M. W. Schmidt,  C. D. Sherrill,  D. G. Truhlar,  A. Aspuru-Guzik,  R. Baer,  
 A. T. Bell,  N. A. Besley,  Jeng-Da Chai,  A. E. DePrince, III,  
 R. A. DiStasio Jr.,  A. Dreuw,  B. D. Dunietz,  T. R. Furlani,  
 Chao-Ping Hsu,  Yousung Jung,  Jing Kong,  D. S. Lambrecht,  WanZhen Liang,  
 C. Ochsenfeld,  V. A. Rassolov,  L. V. Slipchenko,  J. E. Subotnik,  
 T. Van Voorhis,  J. M. Herbert,  A. I. Krylov,  P. M. W. Gill,  M. Head-Gordon

 Contributors to earlier versions of Q-Chem not listed above: 
 R. D. Adamson,  B. Austin,  J. Baker,  G. J. O. Beran,  K. Brandhorst,  
 S. T. Brown,  E. F. C. Byrd,  A. K. Chakraborty,  C.-L. Cheng,  
 Siu Hung Chien,  D. M. Chipman,  D. L. Crittenden,  H. Dachsel,  
 R. J. Doerksen,  A. D. Dutoi,  L. Fusti-Molnar,  W. A. Goddard III,  
 A. Golubeva-Zadorozhnaya,  S. R. Gwaltney,  G. Hawkins,  A. Heyden,  
 S. Hirata,  G. Kedziora,  F. J. Keil,  C. Kelley,  Jihan Kim,  R. A. King,  
 R. Z. Khaliullin,  P. P. Korambath,  W. Kurlancheek,  A. M. Lee,  M. S. Lee,  
 S. V. Levchenko,  Ching Yeh Lin,  D. Liotard,  R. C. Lochan,  I. Lotan,  
 P. E. Maslen,  N. Nair,  D. P. O'Neill,  D. Neuhauser,  E. Neuscamman,  
 C. M. Oana,  R. Olson,  B. Peters,  R. Peverati,  P. A. Pieniazek,  
 Y. M. Rhee,  J. Ritchie,  M. A. Rohrdanz,  E. Rosta,  N. J. Russ,  
 H. F. Schaefer III,  N. E. Schultz,  N. Shenvi,  A. C. Simmonett,  A. Sodt,  
 D. Stuck,  K. S. Thanthiriwatte,  V. Vanovschi,  Tao Wang,  A. Warshel,  
 C. F. Williams,  Q. Wu,  X. Xu,  W. Zhang

 Please cite Q-Chem as follows:
 Y. Shao et al., Mol. Phys. 113, 184-215 (2015)
 DOI: 10.1080/00268976.2014.952696

 Q-Chem 5.1.1 for Intel X86 EM64T Linux

 Parts of Q-Chem use Armadillo 8.300.2 (Tropical Shenanigans).
 http://arma.sourceforge.net/

 Q-Chem begins on Thu Apr  6 14:29:17 2023  

Host: 
0

     Scratch files written to /tmp/songzl/qchem_baker_set/qchem31773//
 Aug318 |scratch|qcdevops|jenkins|workspace|build_RNUM 6609   
Processing $rem in /apps/apps/qchem/qc51/config/preferences.
 MEM_TOTAL  1000 
The previous job contains 0 fragments, simply inherited here
Input Ideriv = 2
Curr. Ideriv = -1
Max.  Ideriv = 2

Checking the input file for inconsistencies... 	...done.

--------------------------------------------------------------
User input:
--------------------------------------------------------------
$molecule
READ ./zmat.inp
$end

$rem
mem_total               230000
mem_static              2048
job_type                optimization
basis                   6-31g**
method                  b3lyp
symmetry                false
sym_ignore              true
geom_opt_max_cycles     500
$end
--------------------------------------------------------------
 ----------------------------------------------------------------
             Standard Nuclear Orientation (Angstroms)
    I     Atom           X                Y                Z
 ----------------------------------------------------------------
    1      C       0.0000000000     1.4000000000     0.0000000000
    2      C       0.0000000000    -1.4000000000     0.0000000000
    3      C       1.2000000000    -0.7700000000     0.0000000000
    4      C       1.2000000000     0.7700000000     0.0000000000
    5      C      -0.8000000000     0.7000000000    -1.3856406461
    6      C      -0.8000000000    -0.7000000000    -1.3856406461
    7      H       2.1112230668    -1.3439576932     0.0815174143
    8      H       2.1112230668     1.3439576932     0.0815174143
    9      H      -0.0073515082     2.4767723243     0.0831102695
   10      H      -0.0073515082    -2.4767723243     0.0831102695
   11      H      -0.8897523450     0.7960088258    -0.0996766074
   12      H      -0.8897523450    -0.7960088258    -0.0996766074
   13      H      -0.0188702083     1.2070292878    -1.9325936146
   14      H      -0.0188702083    -1.2070292878    -1.9325936146
   15      H      -1.6711417838     1.2070292878    -0.9977833349
   16      H      -1.6711417838    -1.2070292878    -0.9977833349
 ----------------------------------------------------------------
 Nuclear Repulsion Energy =   243.1620203155 hartrees
 There are       23 alpha and       23 beta electrons
 Requested basis set is 6-31G(d,p)
 There are 54 shells and 140 basis functions

 Total QAlloc Memory Limit 230000 MB
 Mega-Array Size      2002 MB
 MEM_STATIC part      2048 MB
 A cutoff of  1.0D-11 yielded   1410 shell pairs
 There are      9787 function pairs
 
 -------------------------------------------------------
 OpenMP Integral Computing Module                       
 Release: version 1.0, May 2013, Q-Chem Inc. Pittsburgh 
 -------------------------------------------------------
 Integral Job Info:
 Integral job number is                      11
 Integral operator is                         1
 short-range coefficients                     0
 long-range coefficients              100000000
 Omega coefficients                           0
 if combine SR and LR in K                    0
 Integral screening is                        0
 Integral computing path is                   2
 max size of driver memory is            800000
 size of driver memory is                593474
 size of scratch memory is              2361544
 max col of scratch BK array               1296
 max len of scratch array in speh3          155
 max len of scratch index in speh4           18
 max int batch size is                      520
 min int batch size is                       52
 fixed nKL is                                52
 max L of basis functions is                  2
 order of int derivative is                   0
 number of shells is                         54
 number of basis is                         140
 number of cartesian basis is               140
 number of contracted shell pairs          1410
 number of primitive shell pairs           4645
 maxK2 (contraction) of shell pair           36
 max number of K2 of shell pair               1
 max number of CS2 of shell pair            124
 max number of PS2 of shell pair            504
 mem total for path MDJ                  527196
 -------------------------------------------------------
 Smallest overlap matrix eigenvalue = 1.65E-03

 Scale SEOQF with 1.000000e-01/1.000000e-01/1.000000e-01

 Standard Electronic Orientation quadrupole field applied
 Nucleus-field energy     =     0.0000000022 hartrees
 Guess from superposition of atomic densities
 Warning:  Energy on first SCF cycle will be non-variational
 SAD guess density has 46.000000 electrons

 -----------------------------------------------------------------------
  General SCF calculation program by
  Eric Jon Sundstrom, Paul Horn, Yuezhi Mao, Dmitri Zuev, Alec White,
  David Stuck, Shaama M.S., Shane Yost, Joonho Lee, David Small,
  Daniel Levine, Susi Lehtola, Hugh Burton, Evgeny Epifanovsky
 -----------------------------------------------------------------------
 Exchange:     0.2000 Hartree-Fock + 0.0800 Slater + 0.7200 B88
 Correlation:  0.1900 VWN1RPA + 0.8100 LYP
 Using SG-1 standard quadrature grid
 using 8 threads for integral computing
 -------------------------------------------------------
 OpenMP Integral computing Module                
 Release: version 1.0, May 2013, Q-Chem Inc. Pittsburgh 
 -------------------------------------------------------
 -------------------------------------------------------
 OpenMP BLAS3 based DFT computing Module                
 Release: version 1.0, May 2013, Q-Chem Inc. Pittsburgh 
 -------------------------------------------------------
 A restricted SCF calculation will be
 performed using DIIS
 SCF converges when DIIS error is below 1.0e-08
 ---------------------------------------
  Cycle       Energy         DIIS error
 ---------------------------------------
    1    -236.1920703618      6.36e-02  
    2    -234.1407820442      7.24e-03  
    3    -234.1126857635      8.10e-03  
    4    -234.2848813506      9.75e-04  
    5    -234.2865768850      5.23e-04  
    6    -234.2872845335      1.36e-04  
    7    -234.2873315122      2.29e-05  
    8    -234.2873326209      9.00e-06  
    9    -234.2873328176      1.17e-06  
   10    -234.2873328233      3.90e-07  
   11    -234.2873328239      1.05e-07  
   12    -234.2873328239      2.20e-08  
   13    -234.2873328239      2.67e-09  Convergence criterion met
 ---------------------------------------
 SCF time:   CPU 23.20s  wall 3.00s 
 SCF   energy in the final basis set =     -234.2873328239
 Total energy in the final basis set =     -234.2873328239
 
 --------------------------------------------------------------
 
                    Orbital Energies (a.u.)
 --------------------------------------------------------------
 
 Alpha MOs
 -- Occupied --
-10.208 -10.208 -10.173 -10.173 -10.157 -10.157  -0.906  -0.791
 -0.743  -0.635  -0.612  -0.546  -0.501  -0.494  -0.447  -0.445
 -0.414  -0.397  -0.342  -0.324  -0.296  -0.215  -0.154
 -- Virtual --
  0.013   0.033   0.094   0.107   0.120   0.135   0.147   0.165
  0.186   0.191   0.210   0.222   0.264   0.307   0.307   0.389
  0.456   0.473   0.503   0.525   0.538   0.553   0.584   0.589
  0.618   0.630   0.652   0.684   0.693   0.750   0.776   0.801
  0.813   0.837   0.846   0.847   0.855   0.884   0.895   0.897
  0.934   0.940   0.998   1.057   1.122   1.131   1.212   1.225
  1.273   1.412   1.417   1.429   1.435   1.526   1.565   1.656
  1.688   1.745   1.769   1.798   1.815   1.870   1.890   1.917
  1.958   1.978   2.012   2.045   2.055   2.108   2.165   2.182
  2.214   2.231   2.281   2.315   2.336   2.378   2.403   2.405
  2.475   2.488   2.503   2.510   2.512   2.565   2.598   2.606
  2.617   2.677   2.698   2.713   2.783   2.819   2.866   2.899
  2.953   3.014   3.069   3.108   3.262   3.282   3.288   3.320
  3.354   3.470   3.508   3.536   3.602   3.675   3.810   4.228
  4.412   4.446   4.475   4.720   4.835
 --------------------------------------------------------------
 
          Ground-State Mulliken Net Atomic Charges

     Atom                 Charge (a.u.)
  ----------------------------------------
      1 C                    -0.217999
      2 C                    -0.217999
      3 C                    -0.110069
      4 C                    -0.110069
      5 C                    -0.240092
      6 C                    -0.240092
      7 H                     0.065437
      8 H                     0.065437
      9 H                     0.102661
     10 H                     0.102661
     11 H                     0.092699
     12 H                     0.092699
     13 H                     0.179449
     14 H                     0.179449
     15 H                     0.127913
     16 H                     0.127913
  ----------------------------------------
  Sum of atomic charges =     0.000000

 -----------------------------------------------------------------
                    Cartesian Multipole Moments
 -----------------------------------------------------------------
    Charge (ESU x 10^10)
                -0.0000
    Dipole Moment (Debye)
         X      -1.1489      Y      -0.0000      Z      -1.4213
       Tot       1.8276
    Quadrupole Moments (Debye-Ang)
        XX     -37.6238     XY      -0.0000     YY     -34.1622
        XZ      -0.8487     YZ       0.0000     ZZ     -42.6667
    Octopole Moments (Debye-Ang^2)
       XXX     -11.6956    XXY      -0.0000    XYY      -1.6398
       YYY      -0.0000    XXZ      20.1967    XYZ      -0.0000
       YYZ      16.8549    XZZ       0.7396    YZZ      -0.0000
       ZZZ      58.6557
    Hexadecapole Moments (Debye-Ang^3)
      XXXX    -232.9858   XXXY       0.0000   XXYY     -89.7415
      XYYY       0.0000   YYYY    -297.2891   XXXZ     -43.7401
      XXYZ       0.0000   XYYZ     -14.5347   YYYZ       0.0000
      XXZZ     -84.7567   XYZZ       0.0000   YYZZ     -90.8554
      XZZZ     -57.4906   YZZZ       0.0000   ZZZZ    -219.6833
 -----------------------------------------------------------------
 Calculating analytic gradient of the SCF energy
 Gradient of SCF Energy
            1           2           3           4           5           6
    1  -0.0145036  -0.0145036  -0.0517324  -0.0517324   0.0051506   0.0051506
    2  -0.0018443   0.0018443  -0.1112586   0.1112586  -0.0482949   0.0482949
    3  -0.0320433  -0.0320433  -0.0283844  -0.0283844   0.0786643   0.0786643
            7           8           9          10          11          12
    1  -0.0065417  -0.0065417   0.0155519   0.0155519  -0.0048587  -0.0048587
    2  -0.0032371   0.0032371  -0.0033538   0.0033538  -0.0108392   0.0108392
    3   0.0023392   0.0023392   0.0106867   0.0106867  -0.1173708  -0.1173708
           13          14          15          16
    1   0.0257254   0.0257254   0.0312085   0.0312085
    2   0.0002869  -0.0002869  -0.0071644   0.0071644
    3   0.0272882   0.0272882   0.0588201   0.0588201
 Max gradient component =       1.174E-01
 RMS gradient           =       4.372E-02
 Gradient time:  CPU 8.13 s  wall 1.02 s
 Geometry Optimization Parameters
   NAtoms,    NIC,     NZ,  NCons,   NDum,   NFix, NCnnct, MaxDiis
       16     154      20       0       0       0       0       0


** GEOMETRY OPTIMIZATION IN DELOCALIZED INTERNAL COORDINATES **
   Searching for a Minimum

   Optimization Cycle:   1

                       Coordinates (Angstroms)
     ATOM                X               Y               Z
      1  C         0.0000000000    1.4000000000    0.0000000000
      2  C         0.0000000000   -1.4000000000    0.0000000000
      3  C         1.2000000000   -0.7700000000    0.0000000000
      4  C         1.2000000000    0.7700000000    0.0000000000
      5  C        -0.8000000000    0.7000000000   -1.3856406461
      6  C        -0.8000000000   -0.7000000000   -1.3856406461
      7  H         2.1112230668   -1.3439576932    0.0815174143
      8  H         2.1112230668    1.3439576932    0.0815174143
      9  H        -0.0073515082    2.4767723243    0.0831102695
     10  H        -0.0073515082   -2.4767723243    0.0831102695
     11  H        -0.8897523450    0.7960088258   -0.0996766074
     12  H        -0.8897523450   -0.7960088258   -0.0996766074
     13  H        -0.0188702083    1.2070292878   -1.9325936146
     14  H        -0.0188702083   -1.2070292878   -1.9325936146
     15  H        -1.6711417838    1.2070292878   -0.9977833349
     16  H        -1.6711417838   -1.2070292878   -0.9977833349
   Point Group: c1    Number of degrees of freedom:    42


   Energy is   -234.287332824


 Attempting to Generate Delocalized Internal Coordinates

 25 Hessian modes will be used to form the next step
  Hessian Eigenvalues:
     0.015698    0.020093    0.023257    0.027970    0.052103    0.055911
     0.078514    0.092090    0.097295    0.130117    0.156712    0.159467
     0.175829    0.261620    0.279022    0.359943    0.359943    0.359943
     0.359943    0.359943    0.359943    0.359943    0.359943    0.424105
     0.527815

 Minimum Search - Taking Simple RFO Step
 Searching for Lamda that Minimizes Along All modes
 Value Taken    Lamda =  -0.16912921
 Calculated Step too Large.  Step scaled by  0.418729
 Step Taken.  Stepsize is  0.300000

                             Maximum     Tolerance    Cnvgd?
         Gradient           0.125068      0.000300      NO
         Displacement       0.160120      0.001200      NO
         Energy change     *********      0.000001      NO


 New Cartesian Coordinates Obtained by Inverse Iteration

 Displacement from previous Coordinates is:  0.355409
 ----------------------------------------------------------------
             Standard Nuclear Orientation (Angstroms)
    I     Atom           X                Y                Z
 ----------------------------------------------------------------
    1      C       0.0172638499     1.3901321459     0.0167159100
    2      C       0.0172638499    -1.3901321459     0.0167159100
    3      C       1.2320233993    -0.7471896168     0.0289015971
    4      C       1.2320233993     0.7471896168     0.0289015971
    5      C      -0.8277224941     0.7089368501    -1.4121480698
    6      C      -0.8277224941    -0.7089368501    -1.4121480698
    7      H       2.1497733909    -1.3134386870     0.1111879593
    8      H       2.1497733909     1.3134386870     0.1111879593
    9      H       0.0099976526     2.4683071522     0.0958601211
   10      H       0.0099976526    -2.4683071522     0.0958601211
   11      H      -0.8868165001     0.8012100351    -0.0656300103
   12      H      -0.8868165001    -0.8012100351    -0.0656300103
   13      H      -0.0628083530     1.2095893727    -1.9833053553
   14      H      -0.0628083530    -1.2095893727    -1.9833053553
   15      H      -1.7076037240     1.2211676380    -1.0426486713
   16      H      -1.7076037240    -1.2211676380    -1.0426486713
 ----------------------------------------------------------------
 Nuclear Repulsion Energy =   240.4047687146 hartrees
 There are       23 alpha and       23 beta electrons
 Applying Cartesian multipole field
    Component          Value
    ---------          -----
     (2,0,0)        1.00000E-11
     (0,2,0)        2.00000E-11
     (0,0,2)       -3.00000E-11
 Nucleus-field energy     =     0.0000000021 hartrees
 Requested basis set is 6-31G(d,p)
 There are 54 shells and 140 basis functions
 A cutoff of  1.0D-11 yielded   1410 shell pairs
 There are      9787 function pairs
 Smallest overlap matrix eigenvalue = 1.74E-03
 Guess MOs from SCF MO coefficient file

 -----------------------------------------------------------------------
  General SCF calculation program by
  Eric Jon Sundstrom, Paul Horn, Yuezhi Mao, Dmitri Zuev, Alec White,
  David Stuck, Shaama M.S., Shane Yost, Joonho Lee, David Small,
  Daniel Levine, Susi Lehtola, Hugh Burton, Evgeny Epifanovsky
 -----------------------------------------------------------------------
 Exchange:     0.2000 Hartree-Fock + 0.0800 Slater + 0.7200 B88
 Correlation:  0.1900 VWN1RPA + 0.8100 LYP
 Using SG-1 standard quadrature grid
 using 8 threads for integral computing
 -------------------------------------------------------
 OpenMP Integral computing Module                
 Release: version 1.0, May 2013, Q-Chem Inc. Pittsburgh 
 -------------------------------------------------------
 -------------------------------------------------------
 OpenMP BLAS3 based DFT computing Module                
 Release: version 1.0, May 2013, Q-Chem Inc. Pittsburgh 
 -------------------------------------------------------
 A restricted SCF calculation will be
 performed using DIIS
 SCF converges when DIIS error is below 1.0e-08
 ---------------------------------------
  Cycle       Energy         DIIS error
 ---------------------------------------
    1    -234.3470444037      9.10e-04  
    2    -234.3503502815      2.13e-04  
    3    -234.3503558302      2.16e-04  
    4    -234.3504613604      7.19e-05  
    5    -234.3504765093      1.93e-05  
    6    -234.3504774233      5.18e-06  
    7    -234.3504774942      2.11e-06  
    8    -234.3504775062      4.76e-07  
    9    -234.3504775070      1.35e-07  
   10    -234.3504775071      1.81e-08  
   11    -234.3504775071      5.82e-09  Convergence criterion met
 ---------------------------------------
 SCF time:   CPU 20.21s  wall 2.00s 
 SCF   energy in the final basis set =     -234.3504775071
 Total energy in the final basis set =     -234.3504775071
 
 --------------------------------------------------------------
 
                    Orbital Energies (a.u.)
 --------------------------------------------------------------
 
 Alpha MOs
 -- Occupied --
-10.206 -10.206 -10.175 -10.174 -10.160 -10.159  -0.883  -0.769
 -0.745  -0.627  -0.609  -0.538  -0.496  -0.494  -0.438  -0.436
 -0.406  -0.403  -0.346  -0.327  -0.302  -0.215  -0.164
 -- Virtual --
  0.015   0.034   0.091   0.109   0.119   0.137   0.152   0.166
  0.183   0.196   0.211   0.219   0.258   0.299   0.309   0.384
  0.462   0.473   0.511   0.529   0.534   0.554   0.582   0.597
  0.619   0.619   0.661   0.670   0.689   0.741   0.772   0.802
  0.823   0.838   0.846   0.848   0.857   0.884   0.896   0.901
  0.934   0.936   1.003   1.060   1.118   1.121   1.214   1.224
  1.268   1.397   1.407   1.443   1.454   1.493   1.531   1.659
  1.660   1.730   1.782   1.805   1.817   1.866   1.889   1.911
  1.945   1.990   2.032   2.035   2.051   2.085   2.145   2.164
  2.204   2.227   2.255   2.308   2.337   2.360   2.404   2.411
  2.451   2.482   2.495   2.497   2.515   2.557   2.587   2.590
  2.601   2.651   2.700   2.715   2.772   2.787   2.854   2.858
  2.916   2.987   3.014   3.118   3.234   3.252   3.285   3.328
  3.346   3.455   3.495   3.519   3.587   3.648   3.809   4.211
  4.405   4.417   4.463   4.711   4.813
 --------------------------------------------------------------
 
          Ground-State Mulliken Net Atomic Charges

     Atom                 Charge (a.u.)
  ----------------------------------------
      1 C                    -0.227004
      2 C                    -0.227004
      3 C                    -0.091484
      4 C                    -0.091484
      5 C                    -0.254193
      6 C                    -0.254193
      7 H                     0.067354
      8 H                     0.067354
      9 H                     0.099881
     10 H                     0.099881
     11 H                     0.103915
     12 H                     0.103915
     13 H                     0.172186
     14 H                     0.172186
     15 H                     0.129344
     16 H                     0.129344
  ----------------------------------------
  Sum of atomic charges =     0.000000

 -----------------------------------------------------------------
                    Cartesian Multipole Moments
 -----------------------------------------------------------------
    Charge (ESU x 10^10)
                -0.0000
    Dipole Moment (Debye)
         X      -1.0238      Y       0.0000      Z      -1.3162
       Tot       1.6675
    Quadrupole Moments (Debye-Ang)
        XX     -37.2661     XY       0.0000     YY     -34.5511
        XZ      -0.8254     YZ      -0.0000     ZZ     -42.5114
    Octopole Moments (Debye-Ang^2)
       XXX     -11.6012    XXY       0.0000    XYY      -2.0160
       YYY       0.0000    XXZ      20.1104    XYZ       0.0000
       YYZ      16.7990    XZZ       0.5733    YZZ       0.0000
       ZZZ      57.7497
    Hexadecapole Moments (Debye-Ang^3)
      XXXX    -240.3386   XXXY       0.0000   XXYY     -90.6530
      XYYY       0.0000   YYYY    -296.6690   XXXZ     -47.5521
      XXYZ      -0.0000   XYYZ     -15.6275   YYYZ      -0.0000
      XXZZ     -87.5508   XYZZ      -0.0000   YYZZ     -91.3152
      XZZZ     -62.1208   YZZZ      -0.0000   ZZZZ    -226.1150
 -----------------------------------------------------------------
 Calculating analytic gradient of the SCF energy
 Gradient of SCF Energy
            1           2           3           4           5           6
    1  -0.0164965  -0.0164965  -0.0302053  -0.0302053   0.0020640   0.0020640
    2   0.0038670  -0.0038670  -0.0883254   0.0883254  -0.0296061   0.0296061
    3  -0.0193918  -0.0193918  -0.0237435  -0.0237435   0.0618375   0.0618375
            7           8           9          10          11          12
    1  -0.0042456  -0.0042456   0.0135590   0.0135590  -0.0074849  -0.0074849
    2  -0.0014935   0.0014935  -0.0025647   0.0025647  -0.0120094   0.0120094
    3   0.0026929   0.0026929   0.0096049   0.0096049  -0.1023806  -0.1023806
           13          14          15          16
    1   0.0214303   0.0214303   0.0213790   0.0213790
    2  -0.0012171   0.0012171  -0.0045880   0.0045880
    3   0.0233278   0.0233278   0.0480527   0.0480527
 Max gradient component =       1.024E-01
 RMS gradient           =       3.502E-02
 Gradient time:  CPU 7.93 s  wall 0.99 s
 Geometry Optimization Parameters
   NAtoms,    NIC,     NZ,  NCons,   NDum,   NFix, NCnnct, MaxDiis
       16     154      20       0       0       0       0       0

 Cartesian Hessian Update
 Hessian Updated using BFGS Update


** GEOMETRY OPTIMIZATION IN DELOCALIZED INTERNAL COORDINATES **
   Searching for a Minimum

   Optimization Cycle:   2

                       Coordinates (Angstroms)
     ATOM                X               Y               Z
      1  C         0.0172638499    1.3901321459    0.0167159100
      2  C         0.0172638499   -1.3901321459    0.0167159100
      3  C         1.2320233993   -0.7471896168    0.0289015971
      4  C         1.2320233993    0.7471896168    0.0289015971
      5  C        -0.8277224941    0.7089368501   -1.4121480698
      6  C        -0.8277224941   -0.7089368501   -1.4121480698
      7  H         2.1497733909   -1.3134386870    0.1111879593
      8  H         2.1497733909    1.3134386870    0.1111879593
      9  H         0.0099976526    2.4683071522    0.0958601211
     10  H         0.0099976526   -2.4683071522    0.0958601211
     11  H        -0.8868165001    0.8012100351   -0.0656300103
     12  H        -0.8868165001   -0.8012100351   -0.0656300103
     13  H        -0.0628083530    1.2095893727   -1.9833053553
     14  H        -0.0628083530   -1.2095893727   -1.9833053553
     15  H        -1.7076037240    1.2211676380   -1.0426486713
     16  H        -1.7076037240   -1.2211676380   -1.0426486713
   Point Group: c1    Number of degrees of freedom:    42


   Energy is   -234.350477507

 Hessian Updated using BFGS Update

 19 Hessian modes will be used to form the next step
  Hessian Eigenvalues:
     0.015707    0.020069    0.023266    0.028230    0.054032    0.057547
     0.079898    0.091778    0.097811    0.120139    0.143350    0.159929
     0.187305    0.252109    0.285106    0.359883    0.362549    0.426748
     0.560145

 Minimum Search - Taking Simple RFO Step
 Searching for Lamda that Minimizes Along All modes
 Value Taken    Lamda =  -0.12684564
 Calculated Step too Large.  Step scaled by  0.434001
 Step Taken.  Stepsize is  0.300000

                             Maximum     Tolerance    Cnvgd?
         Gradient           0.098729      0.000300      NO
         Displacement       0.171877      0.001200      NO
         Energy change     -0.063145      0.000001      NO


 New Cartesian Coordinates Obtained by Inverse Iteration

 Displacement from previous Coordinates is:  0.294088
 ----------------------------------------------------------------
             Standard Nuclear Orientation (Angstroms)
    I     Atom           X                Y                Z
 ----------------------------------------------------------------
    1      C       0.0304452281     1.3817516824     0.0347441856
    2      C       0.0304452281    -1.3817516824     0.0347441856
    3      C       1.2492357358    -0.7218654287     0.0525956276
    4      C       1.2492357358     0.7218654287     0.0525956276
    5      C      -0.8448146026     0.7141195858    -1.4345435439
    6      C      -0.8448146026    -0.7141195858    -1.4345435439
    7      H       2.1720129093    -1.2838873844     0.1250134423
    8      H       2.1720129093     1.2838873844     0.1250134423
    9      H       0.0198369868     2.4618170137     0.1011192902
   10      H       0.0198369868    -2.4618170137     0.1011192902
   11      H      -0.8803860400     0.8092758988    -0.0182421180
   12      H      -0.8803860400    -0.8092758988    -0.0182421180
   13      H      -0.0924823222     1.2084701610    -2.0273639287
   14      H      -0.0924823222    -1.2084701610    -2.0273639287
   15      H      -1.7297406736     1.2305527385    -1.0843894742
   16      H      -1.7297406736    -1.2305527385    -1.0843894742
 ----------------------------------------------------------------
 Nuclear Repulsion Energy =   238.7550549353 hartrees
 There are       23 alpha and       23 beta electrons
 Applying Cartesian multipole field
    Component          Value
    ---------          -----
     (2,0,0)        1.00000E-11
     (0,2,0)        2.00000E-11
     (0,0,2)       -3.00000E-11
 Nucleus-field energy     =     0.0000000019 hartrees
 Requested basis set is 6-31G(d,p)
 There are 54 shells and 140 basis functions
 A cutoff of  1.0D-11 yielded   1410 shell pairs
 There are      9787 function pairs
 Smallest overlap matrix eigenvalue = 1.72E-03
 Guess MOs from SCF MO coefficient file

 -----------------------------------------------------------------------
  General SCF calculation program by
  Eric Jon Sundstrom, Paul Horn, Yuezhi Mao, Dmitri Zuev, Alec White,
  David Stuck, Shaama M.S., Shane Yost, Joonho Lee, David Small,
  Daniel Levine, Susi Lehtola, Hugh Burton, Evgeny Epifanovsky
 -----------------------------------------------------------------------
 Exchange:     0.2000 Hartree-Fock + 0.0800 Slater + 0.7200 B88
 Correlation:  0.1900 VWN1RPA + 0.8100 LYP
 Using SG-1 standard quadrature grid
 using 8 threads for integral computing
 -------------------------------------------------------
 OpenMP Integral computing Module                
 Release: version 1.0, May 2013, Q-Chem Inc. Pittsburgh 
 -------------------------------------------------------
 -------------------------------------------------------
 OpenMP BLAS3 based DFT computing Module                
 Release: version 1.0, May 2013, Q-Chem Inc. Pittsburgh 
 -------------------------------------------------------
 A restricted SCF calculation will be
 performed using DIIS
 SCF converges when DIIS error is below 1.0e-08
 ---------------------------------------
  Cycle       Energy         DIIS error
 ---------------------------------------
    1    -234.3965682391      8.79e-04  
    2    -234.3995292575      2.58e-04  
    3    -234.3994070671      3.30e-04  
    4    -234.3996956273      6.35e-05  
    5    -234.3997077549      1.43e-05  
    6    -234.3997082165      4.91e-06  
    7    -234.3997082774      1.17e-06  
    8    -234.3997082811      2.92e-07  
    9    -234.3997082813      8.95e-08  
   10    -234.3997082814      1.34e-08  
   11    -234.3997082814      3.66e-09  Convergence criterion met
 ---------------------------------------
 SCF time:   CPU 20.09s  wall 3.00s 
 SCF   energy in the final basis set =     -234.3997082814
 Total energy in the final basis set =     -234.3997082814
 
 --------------------------------------------------------------
 
                    Orbital Energies (a.u.)
 --------------------------------------------------------------
 
 Alpha MOs
 -- Occupied --
-10.203 -10.203 -10.175 -10.175 -10.160 -10.160  -0.864  -0.753
 -0.748  -0.619  -0.611  -0.530  -0.495  -0.493  -0.431  -0.428
 -0.406  -0.400  -0.351  -0.328  -0.310  -0.216  -0.175
 -- Virtual --
  0.017   0.036   0.088   0.114   0.118   0.139   0.157   0.167
  0.180   0.200   0.213   0.217   0.256   0.293   0.312   0.384
  0.466   0.476   0.512   0.528   0.535   0.558   0.584   0.603
  0.612   0.628   0.655   0.673   0.686   0.738   0.773   0.804
  0.833   0.842   0.845   0.849   0.860   0.883   0.901   0.907
  0.935   0.937   1.006   1.063   1.107   1.118   1.216   1.234
  1.276   1.383   1.394   1.445   1.461   1.478   1.513   1.637
  1.658   1.714   1.793   1.823   1.831   1.876   1.898   1.908
  1.934   2.002   2.032   2.052   2.060   2.062   2.131   2.151
  2.198   2.229   2.239   2.305   2.343   2.344   2.399   2.431
  2.431   2.476   2.494   2.495   2.521   2.554   2.576   2.581
  2.597   2.638   2.705   2.722   2.753   2.773   2.849   2.851
  2.889   2.958   2.977   3.138   3.191   3.247   3.281   3.337
  3.339   3.446   3.506   3.519   3.583   3.630   3.822   4.205
  4.398   4.399   4.456   4.705   4.798
 --------------------------------------------------------------
 
          Ground-State Mulliken Net Atomic Charges

     Atom                 Charge (a.u.)
  ----------------------------------------
      1 C                    -0.232700
      2 C                    -0.232700
      3 C                    -0.075560
      4 C                    -0.075560
      5 C                    -0.261560
      6 C                    -0.261560
      7 H                     0.068267
      8 H                     0.068267
      9 H                     0.097901
     10 H                     0.097901
     11 H                     0.111634
     12 H                     0.111634
     13 H                     0.163278
     14 H                     0.163278
     15 H                     0.128739
     16 H                     0.128739
  ----------------------------------------
  Sum of atomic charges =    -0.000000

 -----------------------------------------------------------------
                    Cartesian Multipole Moments
 -----------------------------------------------------------------
    Charge (ESU x 10^10)
                -0.0000
    Dipole Moment (Debye)
         X      -0.8837      Y      -0.0000      Z      -1.1754
       Tot       1.4705
    Quadrupole Moments (Debye-Ang)
        XX     -37.0018     XY       0.0000     YY     -34.8427
        XZ      -0.8535     YZ       0.0000     ZZ     -42.3640
    Octopole Moments (Debye-Ang^2)
       XXX     -11.3041    XXY      -0.0000    XYY      -2.2747
       YYY      -0.0000    XXZ      19.9095    XYZ      -0.0000
       YYZ      16.7157    XZZ       0.4258    YZZ      -0.0000
       ZZZ      57.0153
    Hexadecapole Moments (Debye-Ang^3)
      XXXX    -244.2825   XXXY      -0.0000   XXYY     -90.9483
      XYYY      -0.0000   YYYY    -294.8116   XXXZ     -50.4853
      XXYZ      -0.0000   XYYZ     -16.5249   YYYZ      -0.0000
      XXZZ     -89.2716   XYZZ      -0.0000   YYZZ     -91.7635
      XZZZ     -65.2390   YZZZ      -0.0000   ZZZZ    -231.9671
 -----------------------------------------------------------------
 Calculating analytic gradient of the SCF energy
 Gradient of SCF Energy
            1           2           3           4           5           6
    1  -0.0141064  -0.0141064  -0.0197714  -0.0197714  -0.0031153  -0.0031153
    2   0.0046977  -0.0046977  -0.0583278   0.0583278  -0.0184329   0.0184329
    3  -0.0075007  -0.0075007  -0.0209781  -0.0209781   0.0482234   0.0482234
            7           8           9          10          11          12
    1  -0.0028686  -0.0028686   0.0109965   0.0109965  -0.0054705  -0.0054705
    2  -0.0004498   0.0004498  -0.0015363   0.0015363  -0.0107558   0.0107558
    3   0.0027383   0.0027383   0.0080038   0.0080038  -0.0895940  -0.0895940
           13          14          15          16
    1   0.0186217   0.0186217   0.0157140   0.0157140
    2  -0.0018968   0.0018968  -0.0034882   0.0034882
    3   0.0201662   0.0201662   0.0389412   0.0389412
 Max gradient component =       8.959E-02
 RMS gradient           =       2.746E-02
 Gradient time:  CPU 7.89 s  wall 0.99 s
 Geometry Optimization Parameters
   NAtoms,    NIC,     NZ,  NCons,   NDum,   NFix, NCnnct, MaxDiis
       16     154      20       0       0       0       0       0

 Cartesian Hessian Update
 Hessian Updated using BFGS Update


** GEOMETRY OPTIMIZATION IN DELOCALIZED INTERNAL COORDINATES **
   Searching for a Minimum

   Optimization Cycle:   3

                       Coordinates (Angstroms)
     ATOM                X               Y               Z
      1  C         0.0304452281    1.3817516824    0.0347441856
      2  C         0.0304452281   -1.3817516824    0.0347441856
      3  C         1.2492357358   -0.7218654287    0.0525956276
      4  C         1.2492357358    0.7218654287    0.0525956276
      5  C        -0.8448146026    0.7141195858   -1.4345435439
      6  C        -0.8448146026   -0.7141195858   -1.4345435439
      7  H         2.1720129093   -1.2838873844    0.1250134423
      8  H         2.1720129093    1.2838873844    0.1250134423
      9  H         0.0198369868    2.4618170137    0.1011192902
     10  H         0.0198369868   -2.4618170137    0.1011192902
     11  H        -0.8803860400    0.8092758988   -0.0182421180
     12  H        -0.8803860400   -0.8092758988   -0.0182421180
     13  H        -0.0924823222    1.2084701610   -2.0273639287
     14  H        -0.0924823222   -1.2084701610   -2.0273639287
     15  H        -1.7297406736    1.2305527385   -1.0843894742
     16  H        -1.7297406736   -1.2305527385   -1.0843894742
   Point Group: c1    Number of degrees of freedom:    42


   Energy is   -234.399708281

 Hessian Updated using BFGS Update

 20 Hessian modes will be used to form the next step
  Hessian Eigenvalues:
     0.015725    0.020051    0.023264    0.028008    0.053833    0.056972
     0.080024    0.090349    0.093591    0.106123    0.142873    0.159778
     0.190241    0.282498    0.287783    0.359868    0.360009    0.362849
     0.426503    0.558730

 Minimum Search - Taking Simple RFO Step
 Searching for Lamda that Minimizes Along All modes
 Value Taken    Lamda =  -0.09775241
 Calculated Step too Large.  Step scaled by  0.429912
 Step Taken.  Stepsize is  0.300000

                             Maximum     Tolerance    Cnvgd?
         Gradient           0.076645      0.000300      NO
         Displacement       0.183215      0.001200      NO
         Energy change     -0.049231      0.000001      NO


 New Cartesian Coordinates Obtained by Inverse Iteration

 Displacement from previous Coordinates is:  0.267896
 ----------------------------------------------------------------
             Standard Nuclear Orientation (Angstroms)
    I     Atom           X                Y                Z
 ----------------------------------------------------------------
    1      C       0.0412122853     1.3806025084     0.0502994477
    2      C       0.0412122853    -1.3806025084     0.0502994477
    3      C       1.2634072555    -0.7066627061     0.0758510925
    4      C       1.2634072555     0.7066627061     0.0758510925
    5      C      -0.8562768525     0.7177725893    -1.4535659610
    6      C      -0.8562768525    -0.7177725893    -1.4535659610
    7      H       2.1894008730    -1.2678230541     0.1340270766
    8      H       2.1894008730     1.2678230541     0.1340270766
    9      H       0.0240388374     2.4620512103     0.0995202678
   10      H       0.0240388374    -2.4620512103     0.0995202678
   11      H      -0.8727984407     0.8212967362     0.0364893696
   12      H      -0.8727984407    -0.8212967362     0.0364893696
   13      H      -0.1178683811     1.2065165918    -2.0691521732
   14      H      -0.1178683811    -1.2065165918    -2.0691521732
   15      H      -1.7470083553     1.2373410063    -1.1245356391
   16      H      -1.7470083553    -1.2373410063    -1.1245356391
 ----------------------------------------------------------------
 Nuclear Repulsion Energy =   237.0697765383 hartrees
 There are       23 alpha and       23 beta electrons
 Applying Cartesian multipole field
    Component          Value
    ---------          -----
     (2,0,0)        1.00000E-11
     (0,2,0)        2.00000E-11
     (0,0,2)       -3.00000E-11
 Nucleus-field energy     =     0.0000000018 hartrees
 Requested basis set is 6-31G(d,p)
 There are 54 shells and 140 basis functions
 A cutoff of  1.0D-11 yielded   1408 shell pairs
 There are      9751 function pairs
 Smallest overlap matrix eigenvalue = 1.72E-03
 Guess MOs from SCF MO coefficient file

 -----------------------------------------------------------------------
  General SCF calculation program by
  Eric Jon Sundstrom, Paul Horn, Yuezhi Mao, Dmitri Zuev, Alec White,
  David Stuck, Shaama M.S., Shane Yost, Joonho Lee, David Small,
  Daniel Levine, Susi Lehtola, Hugh Burton, Evgeny Epifanovsky
 -----------------------------------------------------------------------
 Exchange:     0.2000 Hartree-Fock + 0.0800 Slater + 0.7200 B88
 Correlation:  0.1900 VWN1RPA + 0.8100 LYP
 Using SG-1 standard quadrature grid
 using 8 threads for integral computing
 -------------------------------------------------------
 OpenMP Integral computing Module                
 Release: version 1.0, May 2013, Q-Chem Inc. Pittsburgh 
 -------------------------------------------------------
 -------------------------------------------------------
 OpenMP BLAS3 based DFT computing Module                
 Release: version 1.0, May 2013, Q-Chem Inc. Pittsburgh 
 -------------------------------------------------------
 A restricted SCF calculation will be
 performed using DIIS
 SCF converges when DIIS error is below 1.0e-08
 ---------------------------------------
  Cycle       Energy         DIIS error
 ---------------------------------------
    1    -234.4350613516      7.89e-04  
    2    -234.4373261209      2.35e-04  
    3    -234.4371923971      3.19e-04  
    4    -234.4374675266      5.29e-05  
    5    -234.4374761277      5.99e-06  
    6    -234.4374762084      2.75e-06  
    7    -234.4374762274      9.87e-07  
    8    -234.4374762298      1.69e-07  
    9    -234.4374762299      6.33e-08  
   10    -234.4374762299      9.74e-09  Convergence criterion met
 ---------------------------------------
 SCF time:   CPU 18.26s  wall 2.00s 
 SCF   energy in the final basis set =     -234.4374762299
 Total energy in the final basis set =     -234.4374762299
 
 --------------------------------------------------------------
 
                    Orbital Energies (a.u.)
 --------------------------------------------------------------
 
 Alpha MOs
 -- Occupied --
-10.200 -10.199 -10.177 -10.177 -10.162 -10.162  -0.849  -0.749
 -0.740  -0.613  -0.612  -0.522  -0.497  -0.490  -0.425  -0.420
 -0.407  -0.394  -0.355  -0.328  -0.316  -0.218  -0.184
 -- Virtual --
  0.018   0.035   0.086   0.116   0.121   0.141   0.160   0.167
  0.178   0.202   0.214   0.215   0.256   0.288   0.312   0.383
  0.469   0.475   0.512   0.524   0.538   0.562   0.584   0.606
  0.608   0.635   0.647   0.679   0.683   0.737   0.775   0.806
  0.838   0.846   0.848   0.851   0.862   0.883   0.911   0.913
  0.937   0.937   1.009   1.061   1.098   1.110   1.215   1.248
  1.285   1.362   1.379   1.423   1.461   1.501   1.502   1.620
  1.652   1.696   1.793   1.836   1.846   1.889   1.905   1.906
  1.930   2.004   2.028   2.038   2.066   2.071   2.121   2.141
  2.193   2.226   2.232   2.301   2.328   2.351   2.393   2.417
  2.445   2.468   2.489   2.495   2.521   2.551   2.566   2.573
  2.598   2.629   2.710   2.727   2.728   2.772   2.838   2.853
  2.875   2.907   2.966   3.139   3.161   3.242   3.276   3.330
  3.343   3.439   3.521   3.523   3.573   3.620   3.827   4.197
  4.386   4.391   4.450   4.695   4.787
 --------------------------------------------------------------
 
          Ground-State Mulliken Net Atomic Charges

     Atom                 Charge (a.u.)
  ----------------------------------------
      1 C                    -0.236763
      2 C                    -0.236763
      3 C                    -0.064980
      4 C                    -0.064980
      5 C                    -0.264716
      6 C                    -0.264716
      7 H                     0.069508
      8 H                     0.069508
      9 H                     0.097073
     10 H                     0.097073
     11 H                     0.117869
     12 H                     0.117869
     13 H                     0.154695
     14 H                     0.154695
     15 H                     0.127314
     16 H                     0.127314
  ----------------------------------------
  Sum of atomic charges =     0.000000

 -----------------------------------------------------------------
                    Cartesian Multipole Moments
 -----------------------------------------------------------------
    Charge (ESU x 10^10)
                -0.0000
    Dipole Moment (Debye)
         X      -0.7774      Y      -0.0000      Z      -1.0448
       Tot       1.3023
    Quadrupole Moments (Debye-Ang)
        XX     -36.8124     XY       0.0000     YY     -35.0328
        XZ      -0.8890     YZ       0.0000     ZZ     -42.2229
    Octopole Moments (Debye-Ang^2)
       XXX     -11.1193    XXY      -0.0000    XYY      -2.4915
       YYY      -0.0000    XXZ      19.6557    XYZ      -0.0000
       YYZ      16.5678    XZZ       0.1248    YZZ      -0.0000
       ZZZ      56.1906
    Hexadecapole Moments (Debye-Ang^3)
      XXXX    -247.4037   XXXY      -0.0000   XXYY     -91.3806
      XYYY      -0.0000   YYYY    -294.6664   XXXZ     -53.0045
      XXYZ      -0.0000   XYYZ     -17.3052   YYYZ      -0.0000
      XXZZ     -90.6774   XYZZ      -0.0000   YYZZ     -92.6052
      XZZZ     -67.6527   YZZZ      -0.0000   ZZZZ    -237.1571
 -----------------------------------------------------------------
 Calculating analytic gradient of the SCF energy
 Gradient of SCF Energy
            1           2           3           4           5           6
    1  -0.0121948  -0.0121948  -0.0119285  -0.0119285  -0.0077517  -0.0077517
    2   0.0063037  -0.0063037  -0.0341692   0.0341692  -0.0107088   0.0107088
    3   0.0026875   0.0026875  -0.0183925  -0.0183925   0.0369978   0.0369978
            7           8           9          10          11          12
    1  -0.0017857  -0.0017857   0.0084651   0.0084651  -0.0028150  -0.0028150
    2  -0.0002217   0.0002217  -0.0008473   0.0008473  -0.0091580   0.0091580
    3   0.0025358   0.0025358   0.0062794   0.0062794  -0.0786320  -0.0786320
           13          14          15          16
    1   0.0163021   0.0163021   0.0117084   0.0117084
    2  -0.0021014   0.0021014  -0.0026420   0.0026420
    3   0.0172782   0.0172782   0.0312458   0.0312458
 Max gradient component =       7.863E-02
 RMS gradient           =       2.186E-02
 Gradient time:  CPU 7.85 s  wall 0.98 s
 Geometry Optimization Parameters
   NAtoms,    NIC,     NZ,  NCons,   NDum,   NFix, NCnnct, MaxDiis
       16     154      20       0       0       0       0       0

 Cartesian Hessian Update
 Hessian Updated using BFGS Update


** GEOMETRY OPTIMIZATION IN DELOCALIZED INTERNAL COORDINATES **
   Searching for a Minimum

   Optimization Cycle:   4

                       Coordinates (Angstroms)
     ATOM                X               Y               Z
      1  C         0.0412122853    1.3806025084    0.0502994477
      2  C         0.0412122853   -1.3806025084    0.0502994477
      3  C         1.2634072555   -0.7066627061    0.0758510925
      4  C         1.2634072555    0.7066627061    0.0758510925
      5  C        -0.8562768525    0.7177725893   -1.4535659610
      6  C        -0.8562768525   -0.7177725893   -1.4535659610
      7  H         2.1894008730   -1.2678230541    0.1340270766
      8  H         2.1894008730    1.2678230541    0.1340270766
      9  H         0.0240388374    2.4620512103    0.0995202678
     10  H         0.0240388374   -2.4620512103    0.0995202678
     11  H        -0.8727984407    0.8212967362    0.0364893696
     12  H        -0.8727984407   -0.8212967362    0.0364893696
     13  H        -0.1178683811    1.2065165918   -2.0691521732
     14  H        -0.1178683811   -1.2065165918   -2.0691521732
     15  H        -1.7470083553    1.2373410063   -1.1245356391
     16  H        -1.7470083553   -1.2373410063   -1.1245356391
   Point Group: c1    Number of degrees of freedom:    42


   Energy is   -234.437476230

 Hessian Updated using BFGS Update

 21 Hessian modes will be used to form the next step
  Hessian Eigenvalues:
     0.015781    0.020083    0.023266    0.027764    0.053018    0.055915
     0.077908    0.080060    0.092336    0.102749    0.146290    0.159636
     0.191040    0.282851    0.313122    0.359886    0.359955    0.360121
     0.362986    0.426317    0.570575

 Minimum Search - Taking Simple RFO Step
 Searching for Lamda that Minimizes Along All modes
 Value Taken    Lamda =  -0.07736078
 Calculated Step too Large.  Step scaled by  0.420594
 Step Taken.  Stepsize is  0.300000

                             Maximum     Tolerance    Cnvgd?
         Gradient           0.063143      0.000300      NO
         Displacement       0.186196      0.001200      NO
         Energy change     -0.037768      0.000001      NO


 New Cartesian Coordinates Obtained by Inverse Iteration

 Displacement from previous Coordinates is:  0.250649
 ----------------------------------------------------------------
             Standard Nuclear Orientation (Angstroms)
    I     Atom           X                Y                Z
 ----------------------------------------------------------------
    1      C       0.0498185585     1.3825634426     0.0630277014
    2      C       0.0498185585    -1.3825634426     0.0630277014
    3      C       1.2746146671    -0.6992101305     0.0971053726
    4      C       1.2746146671     0.6992101305     0.0971053726
    5      C      -0.8627805095     0.7200054399    -1.4695521232
    6      C      -0.8627805095    -0.7200054399    -1.4695521232
    7      H       2.2028149281    -1.2600808275     0.1390597447
    8      H       2.2028149281     1.2600808275     0.1390597447
    9      H       0.0249386356     2.4648761975     0.0940989057
   10      H       0.0249386356    -2.4648761975     0.0940989057
   11      H      -0.8655427989     0.8338551018     0.0956684100
   12      H      -0.8655427989    -0.8338551018     0.0956684100
   13      H      -0.1390156244     1.2039132769    -2.1074049894
   14      H      -0.1390156244    -1.2039132769    -2.1074049894
   15      H      -1.7607406350     1.2411022270    -1.1630695408
   16      H      -1.7607406350    -1.2411022269    -1.1630695408
 ----------------------------------------------------------------
 Nuclear Repulsion Energy =   235.5082625829 hartrees
 There are       23 alpha and       23 beta electrons
 Applying Cartesian multipole field
    Component          Value
    ---------          -----
     (2,0,0)        1.00000E-11
     (0,2,0)        2.00000E-11
     (0,0,2)       -3.00000E-11
 Nucleus-field energy     =     0.0000000017 hartrees
 Requested basis set is 6-31G(d,p)
 There are 54 shells and 140 basis functions
 A cutoff of  1.0D-11 yielded   1404 shell pairs
 There are      9739 function pairs
 Smallest overlap matrix eigenvalue = 1.73E-03
 Guess MOs from SCF MO coefficient file

 -----------------------------------------------------------------------
  General SCF calculation program by
  Eric Jon Sundstrom, Paul Horn, Yuezhi Mao, Dmitri Zuev, Alec White,
  David Stuck, Shaama M.S., Shane Yost, Joonho Lee, David Small,
  Daniel Levine, Susi Lehtola, Hugh Burton, Evgeny Epifanovsky
 -----------------------------------------------------------------------
 Exchange:     0.2000 Hartree-Fock + 0.0800 Slater + 0.7200 B88
 Correlation:  0.1900 VWN1RPA + 0.8100 LYP
 Using SG-1 standard quadrature grid
 using 8 threads for integral computing
 -------------------------------------------------------
 OpenMP Integral computing Module                
 Release: version 1.0, May 2013, Q-Chem Inc. Pittsburgh 
 -------------------------------------------------------
 -------------------------------------------------------
 OpenMP BLAS3 based DFT computing Module                
 Release: version 1.0, May 2013, Q-Chem Inc. Pittsburgh 
 -------------------------------------------------------
 A restricted SCF calculation will be
 performed using DIIS
 SCF converges when DIIS error is below 1.0e-08
 ---------------------------------------
  Cycle       Energy         DIIS error
 ---------------------------------------
    1    -234.4651667959      7.08e-04  
    2    -234.4669089354      2.09e-04  
    3    -234.4667886479      2.93e-04  
    4    -234.4670221437      4.63e-05  
    5    -234.4670286001      6.46e-06  
    6    -234.4670286795      3.15e-06  
    7    -234.4670287027      8.23e-07  
    8    -234.4670287046      6.54e-08  
    9    -234.4670287046      1.67e-08  
   10    -234.4670287046      3.13e-09  Convergence criterion met
 ---------------------------------------
 SCF time:   CPU 18.01s  wall 3.00s 
 SCF   energy in the final basis set =     -234.4670287046
 Total energy in the final basis set =     -234.4670287046
 
 --------------------------------------------------------------
 
                    Orbital Energies (a.u.)
 --------------------------------------------------------------
 
 Alpha MOs
 -- Occupied --
-10.197 -10.197 -10.179 -10.179 -10.164 -10.164  -0.837  -0.749
 -0.731  -0.615  -0.606  -0.514  -0.500  -0.487  -0.420  -0.414
 -0.407  -0.390  -0.356  -0.329  -0.321  -0.221  -0.190
 -- Virtual --
  0.018   0.033   0.086   0.115   0.124   0.143   0.160   0.169
  0.175   0.202   0.211   0.218   0.257   0.284   0.309   0.380
  0.472   0.472   0.511   0.521   0.541   0.565   0.583   0.606
  0.608   0.638   0.642   0.680   0.683   0.737   0.777   0.808
  0.837   0.846   0.853   0.855   0.864   0.883   0.918   0.926
  0.938   0.942   1.012   1.056   1.091   1.101   1.212   1.263
  1.287   1.334   1.367   1.409   1.464   1.494   1.526   1.607
  1.644   1.680   1.790   1.844   1.859   1.899   1.901   1.911
  1.933   1.993   2.025   2.026   2.067   2.084   2.118   2.135
  2.190   2.218   2.232   2.296   2.314   2.358   2.390   2.406
  2.449   2.463   2.483   2.494   2.519   2.546   2.560   2.569
  2.602   2.628   2.712   2.717   2.734   2.769   2.831   2.836
  2.868   2.880   2.952   3.105   3.162   3.238   3.271   3.321
  3.347   3.433   3.520   3.537   3.555   3.619   3.828   4.190
  4.380   4.384   4.447   4.687   4.778
 --------------------------------------------------------------
 
          Ground-State Mulliken Net Atomic Charges

     Atom                 Charge (a.u.)
  ----------------------------------------
      1 C                    -0.239859
      2 C                    -0.239859
      3 C                    -0.058298
      4 C                    -0.058298
      5 C                    -0.264639
      6 C                    -0.264639
      7 H                     0.070938
      8 H                     0.070938
      9 H                     0.096940
     10 H                     0.096940
     11 H                     0.122646
     12 H                     0.122646
     13 H                     0.146936
     14 H                     0.146936
     15 H                     0.125336
     16 H                     0.125336
  ----------------------------------------
  Sum of atomic charges =     0.000000

 -----------------------------------------------------------------
                    Cartesian Multipole Moments
 -----------------------------------------------------------------
    Charge (ESU x 10^10)
                -0.0000
    Dipole Moment (Debye)
         X      -0.7012      Y       0.0000      Z      -0.9285
       Tot       1.1635
    Quadrupole Moments (Debye-Ang)
        XX     -36.6722     XY      -0.0000     YY     -35.1675
        XZ      -0.9229     YZ      -0.0000     ZZ     -42.0779
    Octopole Moments (Debye-Ang^2)
       XXX     -11.0363    XXY       0.0000    XYY      -2.6678
       YYY       0.0000    XXZ      19.3768    XYZ       0.0000
       YYZ      16.4068    XZZ      -0.2893    YZZ       0.0000
       ZZZ      55.3535
    Hexadecapole Moments (Debye-Ang^3)
      XXXX    -249.6467   XXXY       0.0000   XXYY     -91.8104
      XYYY       0.0000   YYYY    -295.4150   XXXZ     -55.0327
      XXYZ       0.0000   XYYZ     -17.9626   YYYZ       0.0000
      XXZZ     -91.7667   XYZZ       0.0000   YYZZ     -93.5813
      XZZZ     -69.3859   YZZZ       0.0000   ZZZZ    -241.6809
 -----------------------------------------------------------------
 Calculating analytic gradient of the SCF energy
 Gradient of SCF Energy
            1           2           3           4           5           6
    1  -0.0094740  -0.0094740  -0.0066794  -0.0066794  -0.0112777  -0.0112777
    2   0.0080017  -0.0080017  -0.0200184   0.0200184  -0.0061789   0.0061789
    3   0.0111430   0.0111430  -0.0160256  -0.0160256   0.0277159   0.0277159
            7           8           9          10          11          12
    1  -0.0010801  -0.0010801   0.0062578   0.0062578  -0.0007490  -0.0007490
    2  -0.0002652   0.0002652  -0.0004150   0.0004150  -0.0079272   0.0079272
    3   0.0022080   0.0022080   0.0046216   0.0046216  -0.0693628  -0.0693628
           13          14          15          16
    1   0.0142936   0.0142936   0.0087088   0.0087088
    2  -0.0020994   0.0020994  -0.0019750   0.0019750
    3   0.0146958   0.0146958   0.0250041   0.0250041
 Max gradient component =       6.936E-02
 RMS gradient           =       1.824E-02
 Gradient time:  CPU 7.73 s  wall 0.97 s
 Geometry Optimization Parameters
   NAtoms,    NIC,     NZ,  NCons,   NDum,   NFix, NCnnct, MaxDiis
       16     154      20       0       0       0       0       0

 Cartesian Hessian Update
 Hessian Updated using BFGS Update


** GEOMETRY OPTIMIZATION IN DELOCALIZED INTERNAL COORDINATES **
   Searching for a Minimum

   Optimization Cycle:   5

                       Coordinates (Angstroms)
     ATOM                X               Y               Z
      1  C         0.0498185585    1.3825634426    0.0630277014
      2  C         0.0498185585   -1.3825634426    0.0630277014
      3  C         1.2746146671   -0.6992101305    0.0971053726
      4  C         1.2746146671    0.6992101305    0.0971053726
      5  C        -0.8627805095    0.7200054399   -1.4695521232
      6  C        -0.8627805095   -0.7200054399   -1.4695521232
      7  H         2.2028149281   -1.2600808275    0.1390597447
      8  H         2.2028149281    1.2600808275    0.1390597447
      9  H         0.0249386356    2.4648761975    0.0940989057
     10  H         0.0249386356   -2.4648761975    0.0940989057
     11  H        -0.8655427989    0.8338551018    0.0956684100
     12  H        -0.8655427989   -0.8338551018    0.0956684100
     13  H        -0.1390156244    1.2039132769   -2.1074049894
     14  H        -0.1390156244   -1.2039132769   -2.1074049894
     15  H        -1.7607406350    1.2411022270   -1.1630695408
     16  H        -1.7607406350   -1.2411022269   -1.1630695408
   Point Group: c1    Number of degrees of freedom:    42


   Energy is   -234.467028705

 Hessian Updated using BFGS Update

 21 Hessian modes will be used to form the next step
  Hessian Eigenvalues:
     0.015831    0.020124    0.023263    0.027267    0.049445    0.054853
     0.067481    0.080107    0.092556    0.102384    0.151439    0.159705
     0.195449    0.282361    0.322578    0.359893    0.359965    0.360266
     0.363115    0.426362    0.584382

 Minimum Search - Taking Simple RFO Step
 Searching for Lamda that Minimizes Along All modes
 Value Taken    Lamda =  -0.06362110
 Calculated Step too Large.  Step scaled by  0.408930
 Step Taken.  Stepsize is  0.300000

                             Maximum     Tolerance    Cnvgd?
         Gradient           0.052477      0.000300      NO
         Displacement       0.182888      0.001200      NO
         Energy change     -0.029552      0.000001      NO


 New Cartesian Coordinates Obtained by Inverse Iteration

 Displacement from previous Coordinates is:  0.235004
 ----------------------------------------------------------------
             Standard Nuclear Orientation (Angstroms)
    I     Atom           X                Y                Z
 ----------------------------------------------------------------
    1      C       0.0558770356     1.3843662000     0.0723997451
    2      C       0.0558770356    -1.3843662000     0.0723997451
    3      C       1.2821868860    -0.6945283585     0.1151642934
    4      C       1.2821868860     0.6945283585     0.1151642934
    5      C      -0.8647527925     0.7212592412    -1.4824621965
    6      C      -0.8647527925    -0.7212592411    -1.4824621965
    7      H       2.2123872688    -1.2541926545     0.1400821281
    8      H       2.2123872688     1.2541926545     0.1400821281
    9      H       0.0240880286     2.4671013947     0.0862816965
   10      H       0.0240880286    -2.4671013947     0.0862816965
   11      H      -0.8598009444     0.8455312767     0.1577293091
   12      H      -0.8598009444    -0.8455312767     0.1577293091
   13      H      -0.1551984736     1.2007648620    -2.1409032332
   14      H      -0.1551984736    -1.2007648620    -2.1409032332
   15      H      -1.7706797869     1.2427459512    -1.1993582616
   16      H      -1.7706797869    -1.2427459512    -1.1993582616
 ----------------------------------------------------------------
 Nuclear Repulsion Energy =   234.2838329578 hartrees
 There are       23 alpha and       23 beta electrons
 Applying Cartesian multipole field
    Component          Value
    ---------          -----
     (2,0,0)        1.00000E-11
     (0,2,0)        2.00000E-11
     (0,0,2)       -3.00000E-11
 Nucleus-field energy     =     0.0000000016 hartrees
 Requested basis set is 6-31G(d,p)
 There are 54 shells and 140 basis functions
 A cutoff of  1.0D-11 yielded   1404 shell pairs
 There are      9739 function pairs
 Smallest overlap matrix eigenvalue = 1.73E-03
 Guess MOs from SCF MO coefficient file

 -----------------------------------------------------------------------
  General SCF calculation program by
  Eric Jon Sundstrom, Paul Horn, Yuezhi Mao, Dmitri Zuev, Alec White,
  David Stuck, Shaama M.S., Shane Yost, Joonho Lee, David Small,
  Daniel Levine, Susi Lehtola, Hugh Burton, Evgeny Epifanovsky
 -----------------------------------------------------------------------
 Exchange:     0.2000 Hartree-Fock + 0.0800 Slater + 0.7200 B88
 Correlation:  0.1900 VWN1RPA + 0.8100 LYP
 Using SG-1 standard quadrature grid
 using 8 threads for integral computing
 -------------------------------------------------------
 OpenMP Integral computing Module                
 Release: version 1.0, May 2013, Q-Chem Inc. Pittsburgh 
 -------------------------------------------------------
 -------------------------------------------------------
 OpenMP BLAS3 based DFT computing Module                
 Release: version 1.0, May 2013, Q-Chem Inc. Pittsburgh 
 -------------------------------------------------------
 A restricted SCF calculation will be
 performed using DIIS
 SCF converges when DIIS error is below 1.0e-08
 ---------------------------------------
  Cycle       Energy         DIIS error
 ---------------------------------------
    1    -234.4893412430      6.51e-04  
    2    -234.4907819144      1.93e-04  
    3    -234.4906696427      2.76e-04  
    4    -234.4908795136      4.12e-05  
    5    -234.4908845298      6.68e-06  
    6    -234.4908846187      2.98e-06  
    7    -234.4908846413      6.39e-07  
    8    -234.4908846425      5.78e-08  
    9    -234.4908846425      2.84e-08  
   10    -234.4908846426      8.86e-09  Convergence criterion met
 ---------------------------------------
 SCF time:   CPU 17.95s  wall 2.00s 
 SCF   energy in the final basis set =     -234.4908846426
 Total energy in the final basis set =     -234.4908846426
 
 --------------------------------------------------------------
 
                    Orbital Energies (a.u.)
 --------------------------------------------------------------
 
 Alpha MOs
 -- Occupied --
-10.195 -10.194 -10.180 -10.180 -10.166 -10.166  -0.828  -0.747
 -0.724  -0.617  -0.601  -0.508  -0.502  -0.484  -0.418  -0.410
 -0.405  -0.386  -0.357  -0.329  -0.326  -0.223  -0.196
 -- Virtual --
  0.020   0.031   0.085   0.115   0.128   0.144   0.161   0.171
  0.173   0.202   0.208   0.221   0.259   0.281   0.307   0.378
  0.468   0.474   0.509   0.519   0.544   0.568   0.580   0.605
  0.609   0.639   0.640   0.678   0.686   0.737   0.778   0.810
  0.835   0.846   0.856   0.858   0.865   0.883   0.921   0.937
  0.941   0.954   1.017   1.048   1.086   1.094   1.209   1.276
  1.282   1.305   1.362   1.404   1.466   1.491   1.545   1.603
  1.635   1.668   1.787   1.849   1.869   1.898   1.909   1.912
  1.939   1.981   2.022   2.023   2.067   2.093   2.118   2.133
  2.188   2.212   2.231   2.289   2.306   2.361   2.393   2.400
  2.443   2.462   2.477   2.493   2.517   2.542   2.555   2.568
  2.602   2.638   2.711   2.712   2.741   2.761   2.797   2.831
  2.862   2.881   2.939   3.073   3.166   3.235   3.267   3.315
  3.351   3.427   3.512   3.539   3.547   3.620   3.826   4.186
  4.380   4.381   4.445   4.685   4.773
 --------------------------------------------------------------
 
          Ground-State Mulliken Net Atomic Charges

     Atom                 Charge (a.u.)
  ----------------------------------------
      1 C                    -0.242927
      2 C                    -0.242927
      3 C                    -0.053487
      4 C                    -0.053487
      5 C                    -0.261882
      6 C                    -0.261882
      7 H                     0.072176
      8 H                     0.072176
      9 H                     0.097092
     10 H                     0.097092
     11 H                     0.125877
     12 H                     0.125877
     13 H                     0.140199
     14 H                     0.140199
     15 H                     0.122952
     16 H                     0.122952
  ----------------------------------------
  Sum of atomic charges =     0.000000

 -----------------------------------------------------------------
                    Cartesian Multipole Moments
 -----------------------------------------------------------------
    Charge (ESU x 10^10)
                -0.0000
    Dipole Moment (Debye)
         X      -0.6456      Y       0.0000      Z      -0.8276
       Tot       1.0496
    Quadrupole Moments (Debye-Ang)
        XX     -36.5675     XY      -0.0000     YY     -35.2862
        XZ      -0.9511     YZ      -0.0000     ZZ     -41.9165
    Octopole Moments (Debye-Ang^2)
       XXX     -11.0037    XXY       0.0000    XYY      -2.8060
       YYY      -0.0000    XXZ      19.0909    XYZ       0.0000
       YYZ      16.2663    XZZ      -0.7500    YZZ      -0.0000
       ZZZ      54.5942
    Hexadecapole Moments (Debye-Ang^3)
      XXXX    -250.8624   XXXY       0.0000   XXYY     -92.0963
      XYYY       0.0000   YYYY    -296.1765   XXXZ     -56.4970
      XXYZ       0.0000   XYYZ     -18.4825   YYYZ       0.0000
      XXZZ     -92.4655   XYZZ       0.0000   YYZZ     -94.4609
      XZZZ     -70.3984   YZZZ       0.0000   ZZZZ    -245.4707
 -----------------------------------------------------------------
 Calculating analytic gradient of the SCF energy
 Gradient of SCF Energy
            1           2           3           4           5           6
    1  -0.0051610  -0.0051610  -0.0039052  -0.0039052  -0.0141842  -0.0141842
    2   0.0095131  -0.0095131  -0.0113418   0.0113418  -0.0047447   0.0047447
    3   0.0182360   0.0182360  -0.0139555  -0.0139555   0.0195517   0.0195517
            7           8           9          10          11          12
    1  -0.0006415  -0.0006415   0.0043997   0.0043997   0.0004065   0.0004065
    2  -0.0002365   0.0002365  -0.0001798   0.0001798  -0.0072823   0.0072823
    3   0.0018342   0.0018342   0.0031255   0.0031255  -0.0614678  -0.0614678
           13          14          15          16
    1   0.0126093   0.0126093   0.0064765   0.0064765
    2  -0.0019929   0.0019929  -0.0014223   0.0014223
    3   0.0125532   0.0125532   0.0201228   0.0201228
 Max gradient component =       6.147E-02
 RMS gradient           =       1.585E-02
 Gradient time:  CPU 7.64 s  wall 0.96 s
 Geometry Optimization Parameters
   NAtoms,    NIC,     NZ,  NCons,   NDum,   NFix, NCnnct, MaxDiis
       16     154      20       0       0       0       0       0

 Cartesian Hessian Update
 Hessian Updated using BFGS Update


** GEOMETRY OPTIMIZATION IN DELOCALIZED INTERNAL COORDINATES **
   Searching for a Minimum

   Optimization Cycle:   6

                       Coordinates (Angstroms)
     ATOM                X               Y               Z
      1  C         0.0558770356    1.3843662000    0.0723997451
      2  C         0.0558770356   -1.3843662000    0.0723997451
      3  C         1.2821868860   -0.6945283585    0.1151642934
      4  C         1.2821868860    0.6945283585    0.1151642934
      5  C        -0.8647527925    0.7212592412   -1.4824621965
      6  C        -0.8647527925   -0.7212592411   -1.4824621965
      7  H         2.2123872688   -1.2541926545    0.1400821281
      8  H         2.2123872688    1.2541926545    0.1400821281
      9  H         0.0240880286    2.4671013947    0.0862816965
     10  H         0.0240880286   -2.4671013947    0.0862816965
     11  H        -0.8598009444    0.8455312767    0.1577293091
     12  H        -0.8598009444   -0.8455312767    0.1577293091
     13  H        -0.1551984736    1.2007648620   -2.1409032332
     14  H        -0.1551984736   -1.2007648620   -2.1409032332
     15  H        -1.7706797869    1.2427459512   -1.1993582616
     16  H        -1.7706797869   -1.2427459512   -1.1993582616
   Point Group: c1    Number of degrees of freedom:    42


   Energy is   -234.490884643

 Hessian Updated using BFGS Update

 21 Hessian modes will be used to form the next step
  Hessian Eigenvalues:
     0.015851    0.020162    0.023237    0.026039    0.041679    0.054593
     0.063952    0.080110    0.092836    0.102450    0.156773    0.160185
     0.204398    0.282604    0.331763    0.359891    0.359968    0.360379
     0.363699    0.426222    0.593051

 Minimum Search - Taking Simple RFO Step
 Searching for Lamda that Minimizes Along All modes
 Value Taken    Lamda =  -0.05401219
 Calculated Step too Large.  Step scaled by  0.394644
 Step Taken.  Stepsize is  0.300000

                             Maximum     Tolerance    Cnvgd?
         Gradient           0.043413      0.000300      NO
         Displacement       0.176782      0.001200      NO
         Energy change     -0.023856      0.000001      NO


 New Cartesian Coordinates Obtained by Inverse Iteration

 Displacement from previous Coordinates is:  0.221666
 ----------------------------------------------------------------
             Standard Nuclear Orientation (Angstroms)
    I     Atom           X                Y                Z
 ----------------------------------------------------------------
    1      C       0.0586770013     1.3857833599     0.0780867549
    2      C       0.0586770014    -1.3857833599     0.0780867549
    3      C       1.2864323541    -0.6911202268     0.1295510079
    4      C       1.2864323541     0.6911202268     0.1295510079
    5      C      -0.8621834648     0.7224949683    -1.4915520434
    6      C      -0.8621834648    -0.7224949683    -1.4915520434
    7      H       2.2184401334    -1.2490109908     0.1369241930
    8      H       2.2184401334     1.2490109908     0.1369241930
    9      H       0.0213580267     2.4686506107     0.0762428985
   10      H       0.0213580267    -2.4686506107     0.0762428986
   11      H      -0.8559027809     0.8573916010     0.2216488890
   12      H      -0.8559027808    -0.8573916010     0.2216488890
   13      H      -0.1660675200     1.1976704744    -2.1688399896
   14      H      -0.1660675200    -1.1976704744    -2.1688399896
   15      H      -1.7766465285     1.2432999800    -1.2331282296
   16      H      -1.7766465284    -1.2432999801    -1.2331282296
 ----------------------------------------------------------------
 Nuclear Repulsion Energy =   233.3921953127 hartrees
 There are       23 alpha and       23 beta electrons
 Applying Cartesian multipole field
    Component          Value
    ---------          -----
     (2,0,0)        1.00000E-11
     (0,2,0)        2.00000E-11
     (0,0,2)       -3.00000E-11
 Nucleus-field energy     =     0.0000000015 hartrees
 Requested basis set is 6-31G(d,p)
 There are 54 shells and 140 basis functions
 A cutoff of  1.0D-11 yielded   1404 shell pairs
 There are      9739 function pairs
 Smallest overlap matrix eigenvalue = 1.72E-03
 Guess MOs from SCF MO coefficient file

 -----------------------------------------------------------------------
  General SCF calculation program by
  Eric Jon Sundstrom, Paul Horn, Yuezhi Mao, Dmitri Zuev, Alec White,
  David Stuck, Shaama M.S., Shane Yost, Joonho Lee, David Small,
  Daniel Levine, Susi Lehtola, Hugh Burton, Evgeny Epifanovsky
 -----------------------------------------------------------------------
 Exchange:     0.2000 Hartree-Fock + 0.0800 Slater + 0.7200 B88
 Correlation:  0.1900 VWN1RPA + 0.8100 LYP
 Using SG-1 standard quadrature grid
 using 8 threads for integral computing
 -------------------------------------------------------
 OpenMP Integral computing Module                
 Release: version 1.0, May 2013, Q-Chem Inc. Pittsburgh 
 -------------------------------------------------------
 -------------------------------------------------------
 OpenMP BLAS3 based DFT computing Module                
 Release: version 1.0, May 2013, Q-Chem Inc. Pittsburgh 
 -------------------------------------------------------
 A restricted SCF calculation will be
 performed using DIIS
 SCF converges when DIIS error is below 1.0e-08
 ---------------------------------------
  Cycle       Energy         DIIS error
 ---------------------------------------
    1    -234.5092630246      6.06e-04  
    2    -234.5105545506      1.76e-04  
    3    -234.5104533138      2.58e-04  
    4    -234.5106392186      3.65e-05  
    5    -234.5106431324      6.59e-06  
    6    -234.5106432288      3.03e-06  
    7    -234.5106432552      6.71e-07  
    8    -234.5106432567      1.10e-07  
    9    -234.5106432567      6.07e-08  
   10    -234.5106432567      8.07e-09  Convergence criterion met
 ---------------------------------------
 SCF time:   CPU 17.95s  wall 2.00s 
 SCF   energy in the final basis set =     -234.5106432567
 Total energy in the final basis set =     -234.5106432567
 
 --------------------------------------------------------------
 
                    Orbital Energies (a.u.)
 --------------------------------------------------------------
 
 Alpha MOs
 -- Occupied --
-10.193 -10.193 -10.182 -10.182 -10.168 -10.167  -0.823  -0.745
 -0.720  -0.618  -0.596  -0.504  -0.503  -0.481  -0.416  -0.406
 -0.403  -0.383  -0.356  -0.331  -0.329  -0.227  -0.200
 -- Virtual --
  0.022   0.029   0.086   0.115   0.130   0.145   0.162   0.170
  0.172   0.202   0.206   0.224   0.261   0.279   0.304   0.376
  0.463   0.476   0.508   0.517   0.547   0.570   0.578   0.604
  0.611   0.636   0.641   0.678   0.687   0.737   0.777   0.812
  0.833   0.846   0.857   0.860   0.866   0.882   0.922   0.940
  0.947   0.966   1.030   1.037   1.084   1.089   1.206   1.274
  1.277   1.289   1.361   1.402   1.469   1.490   1.556   1.608
  1.624   1.662   1.781   1.853   1.872   1.897   1.909   1.917
  1.946   1.976   2.020   2.023   2.067   2.100   2.120   2.135
  2.187   2.208   2.232   2.280   2.304   2.360   2.394   2.402
  2.436   2.460   2.472   2.491   2.515   2.540   2.550   2.571
  2.596   2.653   2.693   2.715   2.749   2.751   2.772   2.834
  2.851   2.888   2.931   3.047   3.169   3.233   3.263   3.309
  3.354   3.420   3.492   3.530   3.551   3.620   3.822   4.184
  4.380   4.383   4.446   4.689   4.768
 --------------------------------------------------------------
 
          Ground-State Mulliken Net Atomic Charges

     Atom                 Charge (a.u.)
  ----------------------------------------
      1 C                    -0.245985
      2 C                    -0.245985
      3 C                    -0.050034
      4 C                    -0.050034
      5 C                    -0.256951
      6 C                    -0.256951
      7 H                     0.073176
      8 H                     0.073176
      9 H                     0.097368
     10 H                     0.097368
     11 H                     0.127646
     12 H                     0.127646
     13 H                     0.134529
     14 H                     0.134529
     15 H                     0.120251
     16 H                     0.120251
  ----------------------------------------
  Sum of atomic charges =     0.000000

 -----------------------------------------------------------------
                    Cartesian Multipole Moments
 -----------------------------------------------------------------
    Charge (ESU x 10^10)
                -0.0000
    Dipole Moment (Debye)
         X      -0.6068      Y       0.0000      Z      -0.7445
       Tot       0.9605
    Quadrupole Moments (Debye-Ang)
        XX     -36.5000     XY      -0.0000     YY     -35.3972
        XZ      -0.9729     YZ      -0.0000     ZZ     -41.7398
    Octopole Moments (Debye-Ang^2)
       XXX     -11.0132    XXY       0.0000    XYY      -2.9092
       YYY      -0.0000    XXZ      18.7996    XYZ      -0.0000
       YYZ      16.1477    XZZ      -1.2351    YZZ      -0.0000
       ZZZ      53.9372
    Hexadecapole Moments (Debye-Ang^3)
      XXXX    -251.0994   XXXY       0.0000   XXYY     -92.2408
      XYYY       0.0000   YYYY    -296.9812   XXXZ     -57.3425
      XXYZ       0.0000   XYYZ     -18.8365   YYYZ       0.0000
      XXZZ     -92.7431   XYZZ       0.0000   YYZZ     -95.1961
      XZZZ     -70.6440   YZZZ       0.0000   ZZZZ    -248.3431
 -----------------------------------------------------------------
 Calculating analytic gradient of the SCF energy
 Gradient of SCF Energy
            1           2           3           4           5           6
    1   0.0004521   0.0004521  -0.0028797  -0.0028797  -0.0168583  -0.0168583
    2   0.0112592  -0.0112592  -0.0061667   0.0061667  -0.0055761   0.0055761
    3   0.0243149   0.0243149  -0.0121711  -0.0121711   0.0119278   0.0119278
[...]
 Max gradient component =       6.092E-04
 RMS gradient           =       1.548E-04
 Gradient time:  CPU 7.55 s  wall 0.95 s
 Geometry Optimization Parameters
   NAtoms,    NIC,     NZ,  NCons,   NDum,   NFix, NCnnct, MaxDiis
       16     154      20       0       0       0       0       0

 Cartesian Hessian Update
 Hessian Updated using BFGS Update


** GEOMETRY OPTIMIZATION IN DELOCALIZED INTERNAL COORDINATES **
   Searching for a Minimum

   Optimization Cycle:  27

                       Coordinates (Angstroms)
     ATOM                X               Y               Z
      1  C        -0.0422216503    1.3976424067   -0.1446051175
      2  C        -0.0422207312   -1.3976454567   -0.1446016865
      3  C         1.2462371062   -0.6686416209    0.1441126953
      4  C         1.2462362599    0.6686412612    0.1441128659
      5  C        -0.7774080135    0.7774608808   -1.3589675231
      6  C        -0.7774067897   -0.7774567916   -1.3589686361
      7  H         2.1504730118   -1.2362686774    0.3513136980
      8  H         2.1504721364    1.2362696949    0.3513103152
      9  H         0.1324743605    2.4642447889   -0.3206331227
     10  H         0.1324764428   -2.4642499830   -0.3206152841
     11  H        -0.6955772355    1.3388727081    0.7395102652
     12  H        -0.6955831980   -1.3388824572    0.7395054650
     13  H        -0.2866364942    1.1362089660   -2.2697360586
     14  H        -0.2866345083   -1.1361996169   -2.2697388335
     15  H        -1.8032338439    1.1608302880   -1.3920637026
     16  H        -1.8032324099   -1.1608263909   -1.3920683782
   Point Group: c1    Number of degrees of freedom:    42


   Energy is   -234.653571302

 Hessian Updated using BFGS Update

 40 Hessian modes will be used to form the next step
  Hessian Eigenvalues:
     0.005073    0.011511    0.011706    0.015484    0.021295    0.022674
     0.024969    0.033659    0.043050    0.045781    0.054802    0.056382
     0.069313    0.070262    0.078611    0.079608    0.087005    0.090200
     0.095276    0.127513    0.133748    0.145467    0.156430    0.159275
     0.160093    0.180809    0.245987    0.269580    0.290137    0.358769
     0.359743    0.359942    0.359943    0.359943    0.360889    0.381585
     0.435026    0.478113    0.510057    0.600230

 Minimum Search - Taking Simple RFO Step
 Searching for Lamda that Minimizes Along All modes
 Value Taken    Lamda =  -0.00000119
 Step Taken.  Stepsize is  0.003179

                             Maximum     Tolerance    Cnvgd?
         Gradient           0.000280      0.000300     YES
         Displacement       0.001630      0.001200      NO
         Energy change     -0.000003      0.000001      NO


 New Cartesian Coordinates Obtained by Inverse Iteration

 Displacement from previous Coordinates is:  0.002976
 ----------------------------------------------------------------
             Standard Nuclear Orientation (Angstroms)
    I     Atom           X                Y                Z
 ----------------------------------------------------------------
    1      C      -0.0420305584     1.3975236709    -0.1448995653
    2      C      -0.0420321261    -1.3975186402    -0.1449051101
    3      C       1.2463391469    -0.6683926053     0.1441445204
    4      C       1.2463405916     0.6683931467     0.1441441956
    5      C      -0.7774679031     0.7774654295    -1.3591233353
    6      C      -0.7774697878    -0.7774721781    -1.3591215740
    7      H       2.1505050622    -1.2359745119     0.3517503917
    8      H       2.1505065842     1.2359727650     0.3517559253
    9      H       0.1322392518     2.4642217715    -0.3206291317
   10      H       0.1322356842    -2.4642132167    -0.3206584234
   11      H      -0.6955267384     1.3385725707     0.7391487861
   12      H      -0.6955170708    -1.3385564068     0.7391566884
   13      H      -0.2867398673     1.1361291680    -2.2699448064
   14      H      -0.2867426601    -1.1361443979    -2.2699401838
   15      H      -1.8032115093     1.1610625870    -1.3915093608
   16      H      -1.8032136565    -1.1610691525    -1.3915020550
 ----------------------------------------------------------------
 Nuclear Repulsion Energy =   236.1990140039 hartrees
 There are       23 alpha and       23 beta electrons
 Applying Cartesian multipole field
    Component          Value
    ---------          -----
     (2,0,0)        1.00000E-11
     (0,2,0)        2.00000E-11
     (0,0,2)       -3.00000E-11
 Nucleus-field energy     =     0.0000000017 hartrees
 Requested basis set is 6-31G(d,p)
 There are 54 shells and 140 basis functions
 A cutoff of  1.0D-11 yielded   1400 shell pairs
 There are      9729 function pairs
 Smallest overlap matrix eigenvalue = 1.88E-03
 Guess MOs from SCF MO coefficient file

 -----------------------------------------------------------------------
  General SCF calculation program by
  Eric Jon Sundstrom, Paul Horn, Yuezhi Mao, Dmitri Zuev, Alec White,
  David Stuck, Shaama M.S., Shane Yost, Joonho Lee, David Small,
  Daniel Levine, Susi Lehtola, Hugh Burton, Evgeny Epifanovsky
 -----------------------------------------------------------------------
 Exchange:     0.2000 Hartree-Fock + 0.0800 Slater + 0.7200 B88
 Correlation:  0.1900 VWN1RPA + 0.8100 LYP
 Using SG-1 standard quadrature grid
 using 8 threads for integral computing
 -------------------------------------------------------
 OpenMP Integral computing Module                
 Release: version 1.0, May 2013, Q-Chem Inc. Pittsburgh 
 -------------------------------------------------------
 -------------------------------------------------------
 OpenMP BLAS3 based DFT computing Module                
 Release: version 1.0, May 2013, Q-Chem Inc. Pittsburgh 
 -------------------------------------------------------
 A restricted SCF calculation will be
 performed using DIIS
 SCF converges when DIIS error is below 1.0e-08
 ---------------------------------------
  Cycle       Energy         DIIS error
 ---------------------------------------
    1    -234.6535718072      7.51e-06  
    2    -234.6535720318      2.60e-06  
    3    -234.6535720393      1.96e-06  
    4    -234.6535720488      2.43e-07  
    5    -234.6535720490      4.20e-08  
    6    -234.6535720490      1.56e-08  
    7    -234.6535720490      6.03e-09  Convergence criterion met
 ---------------------------------------
 SCF time:   CPU 12.37s  wall 2.00s 
 SCF   energy in the final basis set =     -234.6535720490
 Total energy in the final basis set =     -234.6535720490
 
 --------------------------------------------------------------
 
                    Orbital Energies (a.u.)
 --------------------------------------------------------------
 
 Alpha MOs
 -- Occupied --
-10.180 -10.180 -10.178 -10.178 -10.173 -10.172  -0.822  -0.730
 -0.730  -0.614  -0.587  -0.495  -0.486  -0.465  -0.395  -0.395
 -0.390  -0.371  -0.370  -0.318  -0.312  -0.296  -0.234
 -- Virtual --
  0.028   0.088   0.115   0.131   0.148   0.151   0.169   0.186
  0.192   0.209   0.213   0.233   0.247   0.250   0.311   0.365
  0.414   0.497   0.513   0.544   0.563   0.580   0.614   0.619
  0.627   0.634   0.653   0.689   0.704   0.715   0.770   0.809
  0.834   0.835   0.838   0.843   0.858   0.869   0.906   0.907
  0.918   0.932   0.953   0.963   1.109   1.132   1.144   1.265
  1.330   1.372   1.424   1.436   1.514   1.558   1.635   1.663
  1.691   1.749   1.779   1.831   1.849   1.850   1.909   1.913
  1.947   1.997   2.005   2.015   2.078   2.130   2.152   2.155
  2.219   2.220   2.286   2.306   2.336   2.338   2.368   2.387
  2.402   2.438   2.478   2.481   2.499   2.506   2.550   2.623
  2.640   2.655   2.718   2.722   2.753   2.770   2.808   2.824
  2.875   2.887   2.970   3.040   3.160   3.220   3.262   3.296
  3.302   3.343   3.434   3.479   3.491   3.564   3.671   4.206
  4.322   4.437   4.552   4.630   4.815
 --------------------------------------------------------------
 
          Ground-State Mulliken Net Atomic Charges

     Atom                 Charge (a.u.)
  ----------------------------------------
      1 C                    -0.218716
      2 C                    -0.218715
      3 C                    -0.069981
      4 C                    -0.069980
      5 C                    -0.178668
      6 C                    -0.178667
      7 H                     0.077757
      8 H                     0.077757
      9 H                     0.092339
     10 H                     0.092339
     11 H                     0.107115
     12 H                     0.107115
     13 H                     0.100285
     14 H                     0.100284
     15 H                     0.089868
     16 H                     0.089868
  ----------------------------------------
  Sum of atomic charges =     0.000000

 -----------------------------------------------------------------
                    Cartesian Multipole Moments
 -----------------------------------------------------------------
    Charge (ESU x 10^10)
                -0.0000
    Dipole Moment (Debye)
         X      -0.2419      Y      -0.0000      Z      -0.0760
       Tot       0.2536
    Quadrupole Moments (Debye-Ang)
        XX     -37.5347     XY      -0.0000     YY     -36.7727
        XZ       0.0735     YZ       0.0001     ZZ     -38.9963
    Octopole Moments (Debye-Ang^2)
       XXX      -9.1976    XXY      -0.0000    XYY      -1.2551
       YYY       0.0001    XXZ      19.8598    XYZ      -0.0000
       YYZ      17.8833    XZZ      -4.5297    YZZ      -0.0001
       ZZZ      53.6633
    Hexadecapole Moments (Debye-Ang^3)
      XXXX    -238.8021   XXXY      -0.0002   XXYY     -93.4120
      XYYY      -0.0002   YYYY    -326.1725   XXXZ     -48.8467
      XXYZ      -0.0001   XYYZ     -17.9444   YYYZ       0.0001
      XXZZ     -82.5944   XYZZ      -0.0001   YYZZ     -94.3348
      XZZZ     -57.8123   YZZZ      -0.0004   ZZZZ    -227.0806
 -----------------------------------------------------------------
 Calculating analytic gradient of the SCF energy
 Gradient of SCF Energy
            1           2           3           4           5           6
    1   0.0000581   0.0000578  -0.0000968  -0.0000956   0.0000487   0.0000494
    2  -0.0001338   0.0001361  -0.0000229   0.0000223  -0.0001571   0.0001533
    3   0.0001350   0.0001303  -0.0000016  -0.0000041  -0.0002032  -0.0002026
            7           8           9          10          11          12
    1   0.0000015   0.0000015   0.0000021   0.0000022   0.0000203   0.0000197
    2   0.0000068  -0.0000068   0.0000019  -0.0000015   0.0001183  -0.0001157
    3  -0.0000024  -0.0000023  -0.0000250  -0.0000286   0.0001295   0.0001327
           13          14          15          16
    1  -0.0000389  -0.0000386   0.0000043   0.0000044
    2   0.0000270  -0.0000277   0.0000111  -0.0000113
    3  -0.0000170  -0.0000165  -0.0000122  -0.0000121
 Max gradient component =       2.032E-04
 RMS gradient           =       7.945E-05
 Gradient time:  CPU 7.56 s  wall 0.95 s
 Geometry Optimization Parameters
   NAtoms,    NIC,     NZ,  NCons,   NDum,   NFix, NCnnct, MaxDiis
       16     154      20       0       0       0       0       0

 Cartesian Hessian Update
 Hessian Updated using BFGS Update


** GEOMETRY OPTIMIZATION IN DELOCALIZED INTERNAL COORDINATES **
   Searching for a Minimum

   Optimization Cycle:  28

                       Coordinates (Angstroms)
     ATOM                X               Y               Z
      1  C        -0.0420305584    1.3975236709   -0.1448995653
      2  C        -0.0420321261   -1.3975186402   -0.1449051101
      3  C         1.2463391469   -0.6683926053    0.1441445204
      4  C         1.2463405916    0.6683931467    0.1441441956
      5  C        -0.7774679031    0.7774654295   -1.3591233353
      6  C        -0.7774697878   -0.7774721781   -1.3591215740
      7  H         2.1505050622   -1.2359745119    0.3517503917
      8  H         2.1505065842    1.2359727650    0.3517559253
      9  H         0.1322392518    2.4642217715   -0.3206291317
     10  H         0.1322356842   -2.4642132167   -0.3206584234
     11  H        -0.6955267384    1.3385725707    0.7391487861
     12  H        -0.6955170708   -1.3385564068    0.7391566884
     13  H        -0.2867398673    1.1361291680   -2.2699448064
     14  H        -0.2867426601   -1.1361443979   -2.2699401838
     15  H        -1.8032115093    1.1610625870   -1.3915093608
     16  H        -1.8032136565   -1.1610691525   -1.3915020550
   Point Group: c1    Number of degrees of freedom:    42


   Energy is   -234.653572049

 Hessian Updated using BFGS Update

 39 Hessian modes will be used to form the next step
  Hessian Eigenvalues:
     0.005114    0.011539    0.011706    0.015484    0.021296    0.022676
     0.024969    0.031213    0.041901    0.045781    0.054816    0.056382
     0.067435    0.070263    0.077457    0.079614    0.085822    0.091154
     0.095278    0.127521    0.127828    0.145477    0.156430    0.157256
     0.160094    0.180809    0.231910    0.269575    0.274662    0.313791
     0.359673    0.359810    0.359943    0.360348    0.361613    0.416658
     0.478113    0.550843    0.711622

 Minimum Search - Taking Simple RFO Step
 Searching for Lamda that Minimizes Along All modes
 Value Taken    Lamda =   0.00000000
 Step Taken.  Stepsize is  0.003638

                             Maximum     Tolerance    Cnvgd?
         Gradient           0.000143      0.000300     YES
         Displacement       0.002240      0.001200      NO
         Energy change     -0.000001      0.000001     YES

 Final energy is   -234.653572048984     


 ******************************
 **  OPTIMIZATION CONVERGED  **
 ******************************

                       Coordinates (Angstroms)
     ATOM                X               Y               Z
      1  C        -0.0420305584    1.3975236709   -0.1448995653
      2  C        -0.0420321261   -1.3975186402   -0.1449051101
      3  C         1.2463391469   -0.6683926053    0.1441445204
      4  C         1.2463405916    0.6683931467    0.1441441956
      5  C        -0.7774679031    0.7774654295   -1.3591233353
      6  C        -0.7774697878   -0.7774721781   -1.3591215740
      7  H         2.1505050622   -1.2359745119    0.3517503917
      8  H         2.1505065842    1.2359727650    0.3517559253
      9  H         0.1322392518    2.4642217715   -0.3206291317
     10  H         0.1322356842   -2.4642132167   -0.3206584234
     11  H        -0.6955267384    1.3385725707    0.7391487861
     12  H        -0.6955170708   -1.3385564068    0.7391566884
     13  H        -0.2867398673    1.1361291680   -2.2699448064
     14  H        -0.2867426601   -1.1361443979   -2.2699401838
     15  H        -1.8032115093    1.1610625870   -1.3915093608
     16  H        -1.8032136565   -1.1610691525   -1.3915020550

Z-matrix Print:
$molecule
0 1
C 
H  1 1.087550
C  1 1.336786 2 121.459078
H  3 1.087550 1 121.459052 2 -0.000000 0
C  1 1.508335 2 119.632690 3 -179.711513 0
H  5 1.095032 1 111.451292 2 -12.151309 0
H  5 1.100947 1 109.100931 2 104.549950 0
C  3 1.508336 1 118.907677 2 -179.713275 0
H  8 1.095032 3 111.451164 1 -168.131211 0
H  8 1.100942 3 109.102147 1 75.168692 0
C  5 1.549080 1 111.238048 2 -135.123866 0
H  11 1.095011 5 107.945502 1 78.507856 0
H  11 1.095603 5 109.117623 1 -166.398469 0
C  8 1.549090 3 111.237442 1 -45.157330 0
H  14 1.095011 8 107.945756 3 -78.507582 0
H  14 1.095603 8 109.117556 3 166.398710 0
$end

 
 --------------------------------------------------------------
 
                    Orbital Energies (a.u.)
 --------------------------------------------------------------
 
 Alpha MOs
 -- Occupied --
-10.180 -10.180 -10.178 -10.178 -10.173 -10.172  -0.822  -0.730
 -0.730  -0.614  -0.587  -0.495  -0.486  -0.465  -0.395  -0.395
 -0.390  -0.371  -0.370  -0.318  -0.312  -0.296  -0.234
 -- Virtual --
  0.028   0.088   0.115   0.131   0.148   0.151   0.169   0.186
  0.192   0.209   0.213   0.233   0.247   0.250   0.311   0.365
  0.414   0.497   0.513   0.544   0.563   0.580   0.614   0.619
  0.627   0.634   0.653   0.689   0.704   0.715   0.770   0.809
  0.834   0.835   0.838   0.843   0.858   0.869   0.906   0.907
  0.918   0.932   0.953   0.963   1.109   1.132   1.144   1.265
  1.330   1.372   1.424   1.436   1.514   1.558   1.635   1.663
  1.691   1.749   1.779   1.831   1.849   1.850   1.909   1.913
  1.947   1.997   2.005   2.015   2.078   2.130   2.152   2.155
  2.219   2.220   2.286   2.306   2.336   2.338   2.368   2.387
  2.402   2.438   2.478   2.481   2.499   2.506   2.550   2.623
  2.640   2.655   2.718   2.722   2.753   2.770   2.808   2.824
  2.875   2.887   2.970   3.040   3.160   3.220   3.262   3.296
  3.302   3.343   3.434   3.479   3.491   3.564   3.671   4.206
  4.322   4.437   4.552   4.630   4.815
 --------------------------------------------------------------
 
          Ground-State Mulliken Net Atomic Charges

     Atom                 Charge (a.u.)
  ----------------------------------------
      1 C                    -0.218716
      2 C                    -0.218715
      3 C                    -0.069981
      4 C                    -0.069980
      5 C                    -0.178668
      6 C                    -0.178667
      7 H                     0.077757
      8 H                     0.077757
      9 H                     0.092339
     10 H                     0.092339
     11 H                     0.107115
     12 H                     0.107115
     13 H                     0.100285
     14 H                     0.100284
     15 H                     0.089868
     16 H                     0.089868
  ----------------------------------------
  Sum of atomic charges =     0.000000

 -----------------------------------------------------------------
                    Cartesian Multipole Moments
 -----------------------------------------------------------------
    Charge (ESU x 10^10)
                -0.0000
    Dipole Moment (Debye)
         X      -0.2419      Y      -0.0000      Z      -0.0760
       Tot       0.2536
    Quadrupole Moments (Debye-Ang)
        XX     -37.5347     XY      -0.0000     YY     -36.7727
        XZ       0.0735     YZ       0.0001     ZZ     -38.9963
    Octopole Moments (Debye-Ang^2)
       XXX      -9.1976    XXY      -0.0000    XYY      -1.2551
       YYY       0.0001    XXZ      19.8598    XYZ      -0.0000
       YYZ      17.8833    XZZ      -4.5297    YZZ      -0.0001
       ZZZ      53.6633
    Hexadecapole Moments (Debye-Ang^3)
      XXXX    -238.8021   XXXY      -0.0002   XXYY     -93.4120
      XYYY      -0.0002   YYYY    -326.1725   XXXZ     -48.8467
      XXYZ      -0.0001   XYYZ     -17.9444   YYYZ       0.0001
      XXZZ     -82.5944   XYZZ      -0.0001   YYZZ     -94.3348
      XZZZ     -57.8123   YZZZ      -0.0004   ZZZZ    -227.0806
 -----------------------------------------------------------------
Archival summary:
1\1\node1\OPT\ProcedureUnspecified\6-31G**\610\songzl\ThuApr614:30:472023ThuApr614:30:472023\0\\#,OPT,ProcedureUnspecified,6-31G**,\\0,1\C\H,1,1.08755\C,1,1.33679,2,121.459\H,3,1.08755,1,121.459,2,-0,0\C,1,1.50834,2,119.633,3,-179.712,0\H,5,1.09503,1,111.451,2,-12.1513,0\H,5,1.10095,1,109.101,2,104.55,0\C,3,1.50834,1,118.908,2,-179.713,0\H,8,1.09503,3,111.451,1,-168.131,0\H,8,1.10094,3,109.102,1,75.1687,0\C,5,1.54908,1,111.238,2,-135.124,0\H,11,1.09501,5,107.946,1,78.5079,0\H,11,1.0956,5,109.118,1,-166.398,0\C,8,1.54909,3,111.237,1,-45.1573,0\H,14,1.09501,8,107.946,3,-78.5076,0\H,14,1.0956,8,109.118,3,166.399,0\\\@

 Total job time:  90.44s(wall), 720.70s(cpu) 
 Thu Apr  6 14:30:47 2023

        *************************************************************
        *                                                           *
        *  Thank you very much for using Q-Chem.  Have a nice day.  *
        *                                                           *
        *************************************************************


