
Running Job 1 of 1 qchem_batch_opt.inp
qchem qchem_batch_opt.inp_31547.0 /tmp/songzl/qchem_baker_set/qchem31547/ 1
/apps/apps/qchem/qc51/exe/qcprog.exe_s qchem_batch_opt.inp_31547.0 /tmp/songzl/qchem_baker_set/qchem31547/
Check license passed

                  Welcome to Q-Chem
     A Quantum Leap Into The Future Of Chemistry


 Q-Chem 5.1, Q-Chem, Inc., Pleasanton, CA (2018)

 Yihan Shao,  Zhengting Gan,  E. Epifanovsky,  A. T. B. Gilbert,  M. Wormit,  
 J. Kussmann,  A. W. Lange,  A. Behn,  Jia Deng,  Xintian Feng,  D. Ghosh,  
 M. Goldey,  P. R. Horn,  L. D. Jacobson,  I. Kaliman,  T. Kus,  A. Landau,  
 Jie Liu,  E. I. Proynov,  R. M. Richard,  R. P. Steele,  E. J. Sundstrom,  
 H. L. Woodcock III,  P. M. Zimmerman,  D. Zuev,  B. Albrecht,  E. Alguire,  
 S. A. Baeppler,  D. Barton,  Z. Benda,  Y. A. Bernard,  E. J. Berquist,  
 K. B. Bravaya,  H. Burton,  D. Casanova,  Chun-Min Chang,  Yunqing Chen,  
 A. Chien,  K. D. Closser,  M. P. Coons,  S. Coriani,  S. Dasgupta,  
 A. L. Dempwolff,  M. Diedenhofen,  Hainam Do,  R. G. Edgar,  Po-Tung Fang,  
 S. Faraji,  S. Fatehi,  Qingguo Feng,  K. D. Fenk,  J. Fosso-Tande,  
 Qinghui Ge,  A. Ghysels,  G. Gidofalvi,  J. Gomes,  J. Gonthier,  A. Gunina,  
 D. Hait,  M. W. D. Hanson-Heine,  P. H. P. Harbach,  A. W. Hauser,  
 J. E. Herr,  E. G. Hohenstein,  Z. C. Holden,  Kerwin Hui,  B. C. Huynh,  
 T.-C. Jagau,  Hyunjun Ji,  B. Kaduk,  K. Khistyaev,  Jaehoon Kim,  
 P. Klunzinger,  K. Koh,  D. Kosenkov,  L. Koulias,  T. Kowalczyk,  
 C. M. Krauter,  A. Kunitsa,  Ka Un Lao,  A. Laurent,  K. V. Lawler,  
 Joonho Lee,  D. Lefrancois,  S. Lehtola,  D. S. Levine,  Yi-Pei Li,  
 You-Sheng Lin,  Fenglai Liu,  E. Livshits,  A. Luenser,  P. Manohar,  
 E. Mansoor,  S. F. Manzer,  Shan-Ping Mao,  Yuezhi Mao,  N. Mardirossian,  
 A. V. Marenich,  T. Markovich,  L. A. Martinez-Martinez,  S. A. Maurer,  
 N. J. Mayhall,  S. C. McKenzie,  J.-M. Mewes,  A. F. Morrison,  
 J. W. Mullinax,  K. Nanda,  T. S. Nguyen-Beck,  R. Olivares-Amaya,  
 J. A. Parkhill,  T. M. Perrine,  F. Plasser,  P. Pokhilko,  S. Prager,  
 A. Prociuk,  E. Ramos,  D. R. Rehn,  F. Rob,  M. Schneider,  N. Sergueev,  
 S. M. Sharada,  S. Sharma,  D. W. Small,  T. Stauch,  T. Stein,  
 Yu-Chuan Su,  A. J. W. Thom,  A. Tkatchenko,  T. Tsuchimochi,  N. M. Tubman,  
 L. Vogt,  M. L. Vidal,  O. Vydrov,  M. A. Watson,  J. Wenzel,  
 M. de Wergifosse,  T. A. Wesolowski,  A. White,  J. Witte,  A. Yamada,  
 Jun Yang,  K. Yao,  S. Yeganeh,  S. R. Yost,  Zhi-Qiang You,  A. Zech,  
 Igor Ying Zhang,  Xing Zhang,  Yan Zhao,  Ying Zhu,  B. R. Brooks,  
 G. K. L. Chan,  C. J. Cramer,  M. S. Gordon,  W. J. Hehre,  A. Klamt,  
 M. W. Schmidt,  C. D. Sherrill,  D. G. Truhlar,  A. Aspuru-Guzik,  R. Baer,  
 A. T. Bell,  N. A. Besley,  Jeng-Da Chai,  A. E. DePrince, III,  
 R. A. DiStasio Jr.,  A. Dreuw,  B. D. Dunietz,  T. R. Furlani,  
 Chao-Ping Hsu,  Yousung Jung,  Jing Kong,  D. S. Lambrecht,  WanZhen Liang,  
 C. Ochsenfeld,  V. A. Rassolov,  L. V. Slipchenko,  J. E. Subotnik,  
 T. Van Voorhis,  J. M. Herbert,  A. I. Krylov,  P. M. W. Gill,  M. Head-Gordon

 Contributors to earlier versions of Q-Chem not listed above: 
 R. D. Adamson,  B. Austin,  J. Baker,  G. J. O. Beran,  K. Brandhorst,  
 S. T. Brown,  E. F. C. Byrd,  A. K. Chakraborty,  C.-L. Cheng,  
 Siu Hung Chien,  D. M. Chipman,  D. L. Crittenden,  H. Dachsel,  
 R. J. Doerksen,  A. D. Dutoi,  L. Fusti-Molnar,  W. A. Goddard III,  
 A. Golubeva-Zadorozhnaya,  S. R. Gwaltney,  G. Hawkins,  A. Heyden,  
 S. Hirata,  G. Kedziora,  F. J. Keil,  C. Kelley,  Jihan Kim,  R. A. King,  
 R. Z. Khaliullin,  P. P. Korambath,  W. Kurlancheek,  A. M. Lee,  M. S. Lee,  
 S. V. Levchenko,  Ching Yeh Lin,  D. Liotard,  R. C. Lochan,  I. Lotan,  
 P. E. Maslen,  N. Nair,  D. P. O'Neill,  D. Neuhauser,  E. Neuscamman,  
 C. M. Oana,  R. Olson,  B. Peters,  R. Peverati,  P. A. Pieniazek,  
 Y. M. Rhee,  J. Ritchie,  M. A. Rohrdanz,  E. Rosta,  N. J. Russ,  
 H. F. Schaefer III,  N. E. Schultz,  N. Shenvi,  A. C. Simmonett,  A. Sodt,  
 D. Stuck,  K. S. Thanthiriwatte,  V. Vanovschi,  Tao Wang,  A. Warshel,  
 C. F. Williams,  Q. Wu,  X. Xu,  W. Zhang

 Please cite Q-Chem as follows:
 Y. Shao et al., Mol. Phys. 113, 184-215 (2015)
 DOI: 10.1080/00268976.2014.952696

 Q-Chem 5.1.1 for Intel X86 EM64T Linux

 Parts of Q-Chem use Armadillo 8.300.2 (Tropical Shenanigans).
 http://arma.sourceforge.net/

 Q-Chem begins on Thu Apr  6 15:54:39 2023  

Host: 
0

     Scratch files written to /tmp/songzl/qchem_baker_set/qchem31547//
 Aug318 |scratch|qcdevops|jenkins|workspace|build_RNUM 6609   
Processing $rem in /apps/apps/qchem/qc51/config/preferences.
 MEM_TOTAL  1000 
The previous job contains 0 fragments, simply inherited here
Input Ideriv = 2
Curr. Ideriv = -1
Max.  Ideriv = 2

Checking the input file for inconsistencies... 	...done.

--------------------------------------------------------------
User input:
--------------------------------------------------------------
$molecule
READ ./zmat.inp
$end

$rem
mem_total               230000
mem_static              2048
job_type                optimization
basis                   6-31g**
method                  b3lyp
symmetry                false
sym_ignore              true
geom_opt_max_cycles     500
$end
--------------------------------------------------------------
 ----------------------------------------------------------------
             Standard Nuclear Orientation (Angstroms)
    I     Atom           X                Y                Z
 ----------------------------------------------------------------
    1      C       0.0000000000     0.0000000000     0.0000000000
    2      C       0.0000000000     0.0000000000     1.4300000000
    3      H       2.1650635095     0.0000000000    -1.2500000000
    4      F       2.5114736710     0.0000000000    -0.0200000000
    5      H      -0.2533352933    -0.9454601859    -0.4564277227
    6      H      -0.2533352933     0.9454601859    -0.4564277227
    7      H      -0.2533352933     0.9454601859     1.8864277227
    8      H      -0.2533352933    -0.9454601859     1.8864277227
 ----------------------------------------------------------------
 Nuclear Repulsion Energy =    66.1741198304 hartrees
 There are       13 alpha and       13 beta electrons
 Requested basis set is 6-31G(d,p)
 There are 27 shells and 70 basis functions

 Total QAlloc Memory Limit 230000 MB
 Mega-Array Size      2002 MB
 MEM_STATIC part      2048 MB
 A cutoff of  1.0D-11 yielded    364 shell pairs
 There are      2516 function pairs
 
 -------------------------------------------------------
 OpenMP Integral Computing Module                       
 Release: version 1.0, May 2013, Q-Chem Inc. Pittsburgh 
 -------------------------------------------------------
 Integral Job Info:
 Integral job number is                      11
 Integral operator is                         1
 short-range coefficients                     0
 long-range coefficients              100000000
 Omega coefficients                           0
 if combine SR and LR in K                    0
 Integral screening is                        0
 Integral computing path is                   2
 max size of driver memory is            800000
 size of driver memory is                593474
 size of scratch memory is              2361544
 max col of scratch BK array               1296
 max len of scratch array in speh3          155
 max len of scratch index in speh4           18
 max int batch size is                      520
 min int batch size is                       52
 fixed nKL is                                52
 max L of basis functions is                  2
 order of int derivative is                   0
 number of shells is                         27
 number of basis is                          70
 number of cartesian basis is                70
 number of contracted shell pairs           364
 number of primitive shell pairs           1275
 maxK2 (contraction) of shell pair           36
 max number of K2 of shell pair               1
 max number of CS2 of shell pair             33
 max number of PS2 of shell pair            144
 mem total for path MDJ                  511410
 -------------------------------------------------------
 Smallest overlap matrix eigenvalue = 8.03E-03

 Scale SEOQF with 1.000000e-01/1.000000e+00/1.000000e-01

 Standard Electronic Orientation quadrupole field applied
 Nucleus-field energy     =     0.0000000025 hartrees
 Guess from superposition of atomic densities
 Warning:  Energy on first SCF cycle will be non-variational
 SAD guess density has 26.000000 electrons

 -----------------------------------------------------------------------
  General SCF calculation program by
  Eric Jon Sundstrom, Paul Horn, Yuezhi Mao, Dmitri Zuev, Alec White,
  David Stuck, Shaama M.S., Shane Yost, Joonho Lee, David Small,
  Daniel Levine, Susi Lehtola, Hugh Burton, Evgeny Epifanovsky
 -----------------------------------------------------------------------
 Exchange:     0.2000 Hartree-Fock + 0.0800 Slater + 0.7200 B88
 Correlation:  0.1900 VWN1RPA + 0.8100 LYP
 Using SG-1 standard quadrature grid
 using 8 threads for integral computing
 -------------------------------------------------------
 OpenMP Integral computing Module                
 Release: version 1.0, May 2013, Q-Chem Inc. Pittsburgh 
 -------------------------------------------------------
 -------------------------------------------------------
 OpenMP BLAS3 based DFT computing Module                
 Release: version 1.0, May 2013, Q-Chem Inc. Pittsburgh 
 -------------------------------------------------------
 A restricted SCF calculation will be
 performed using DIIS
 SCF converges when DIIS error is below 1.0e-08
 ---------------------------------------
  Cycle       Energy         DIIS error
 ---------------------------------------
    1    -178.8641628071      6.19e-02  
    2    -178.8196209721      1.29e-02  
    3    -178.7164570638      2.07e-02  
    4    -178.9201890981      2.98e-03  
    5    -178.9252093977      7.32e-04  
    6    -178.9253433748      4.69e-04  
    7    -178.9254818384      6.64e-05  
    8    -178.9254844345      7.17e-06  
    9    -178.9254844648      1.28e-06  
   10    -178.9254844659      1.70e-07  
   11    -178.9254844659      3.53e-08  
   12    -178.9254844659      4.40e-09  Convergence criterion met
 ---------------------------------------
 SCF time:   CPU 5.52s  wall 1.00s 
 SCF   energy in the final basis set =     -178.9254844659
 Total energy in the final basis set =     -178.9254844659
 
 --------------------------------------------------------------
 
                    Orbital Energies (a.u.)
 --------------------------------------------------------------
 
 Alpha MOs
 -- Occupied --
-24.657 -10.192 -10.186  -1.091  -0.738  -0.575  -0.466  -0.443
 -0.384  -0.365  -0.353  -0.345  -0.235
 -- Virtual --
 -0.055  -0.004   0.111   0.149   0.171   0.244   0.290   0.497
  0.572   0.582   0.634   0.645   0.672   0.742   0.812   0.845
  0.904   0.908   1.012   1.067   1.092   1.212   1.328   1.375
  1.397   1.535   1.641   1.681   1.704   1.844   1.867   1.868
  1.917   1.930   1.951   1.991   2.009   2.241   2.278   2.308
  2.327   2.362   2.405   2.501   2.550   2.632   2.691   2.845
  2.864   3.262   3.323   3.341   3.502   3.569   3.644   4.248
  4.507
 --------------------------------------------------------------
 
          Ground-State Mulliken Net Atomic Charges

     Atom                 Charge (a.u.)
  ----------------------------------------
      1 C                    -0.226697
      2 C                    -0.198003
      3 H                     0.344378
      4 F                    -0.341703
      5 H                     0.105593
      6 H                     0.105593
      7 H                     0.105420
      8 H                     0.105420
  ----------------------------------------
  Sum of atomic charges =    -0.000000

 -----------------------------------------------------------------
                    Cartesian Multipole Moments
 -----------------------------------------------------------------
    Charge (ESU x 10^10)
                -0.0000
    Dipole Moment (Debye)
         X      -1.1565      Y       0.0000      Z      -1.8392
       Tot       2.1726
    Quadrupole Moments (Debye-Ang)
        XX     -23.1997     XY       0.0000     YY     -17.6273
        XZ      -4.4470     YZ      -0.0000     ZZ     -15.2634
    Octopole Moments (Debye-Ang^2)
       XXX     -49.3619    XXY       0.0000    XYY     -14.1558
       YYY       0.0000    XXZ     -17.8092    XYZ       0.0000
       YYZ      -7.4875    XZZ      -7.4182    YZZ      -0.0000
       ZZZ     -28.7035
    Hexadecapole Moments (Debye-Ang^3)
      XXXX    -256.6569   XXXY       0.0000   XXYY     -43.3514
      XYYY       0.0000   YYYY     -29.7379   XXXZ      -8.3359
      XXYZ      -0.0000   XYYZ       2.0519   YYYZ      -0.0000
      XXZZ     -43.1766   XYZZ       0.0000   YYZZ     -22.3134
      XZZZ      -3.5365   YZZZ      -0.0000   ZZZZ    -114.7161
 -----------------------------------------------------------------
 Calculating analytic gradient of the SCF energy
 Gradient of SCF Energy
            1           2           3           4           5           6
    1   0.0282513   0.0276888  -0.0332735   0.0194281  -0.0100361  -0.0100361
    2  -0.0000000  -0.0000000  -0.0000000   0.0000000   0.0013495  -0.0013495
    3  -0.0997429   0.0980784  -0.1231590   0.1254084   0.0117933   0.0117933
            7           8
    1  -0.0110113  -0.0110113
    2  -0.0009121   0.0009121
    3  -0.0120857  -0.0120857
 Max gradient component =       1.254E-01
 RMS gradient           =       4.767E-02
 Gradient time:  CPU 2.71 s  wall 0.34 s
 Geometry Optimization Parameters
   NAtoms,    NIC,     NZ,  NCons,   NDum,   NFix, NCnnct, MaxDiis
        8      80       8       0       0       0       0       0


** GEOMETRY OPTIMIZATION IN DELOCALIZED INTERNAL COORDINATES **
   Searching for a Minimum

   Optimization Cycle:   1

                       Coordinates (Angstroms)
     ATOM                X               Y               Z
      1  C         0.0000000000    0.0000000000    0.0000000000
      2  C         0.0000000000    0.0000000000    1.4300000000
      3  H         2.1650635095    0.0000000000   -1.2500000000
      4  F         2.5114736710    0.0000000000   -0.0200000000
      5  H        -0.2533352933   -0.9454601859   -0.4564277227
      6  H        -0.2533352933    0.9454601859   -0.4564277227
      7  H        -0.2533352933    0.9454601859    1.8864277227
      8  H        -0.2533352933   -0.9454601859    1.8864277227
   Point Group: c1    Number of degrees of freedom:    18


   Energy is   -178.925484466


 Attempting to Generate Delocalized Internal Coordinates

 13 Hessian modes will be used to form the next step
  Hessian Eigenvalues:
     0.020596    0.024990    0.036249    0.054375    0.088539    0.099675
     0.160000    0.160000    0.183073    0.313843    0.359943    0.359943
     0.409893

 Minimum Search - Taking Simple RFO Step
 Searching for Lamda that Minimizes Along All modes
 Value Taken    Lamda =  -0.07331601
 Calculated Step too Large.  Step scaled by  0.544016
 Step Taken.  Stepsize is  0.300000

                             Maximum     Tolerance    Cnvgd?
         Gradient           0.122057      0.000300      NO
         Displacement       0.268511      0.001200      NO
         Energy change     *********      0.000001      NO


 New Cartesian Coordinates Obtained by Inverse Iteration

 Displacement from previous Coordinates is:  0.190518
 ----------------------------------------------------------------
             Standard Nuclear Orientation (Angstroms)
    I     Atom           X                Y                Z
 ----------------------------------------------------------------
    1      C      -0.0199834486     0.0000000000     0.0119869680
    2      C      -0.0193811673     0.0000000000     1.3979528415
    3      H       2.1854685280     0.0000000000    -1.1831801533
    4      F       2.4977989599     0.0000000000    -0.0679495721
    5      H      -0.2566007394    -0.9454613140    -0.4579532456
    6      H      -0.2566007394     0.9454613140    -0.4579532456
    7      H      -0.2337526929     0.9404975817     1.8885482036
    8      H      -0.2337526929    -0.9404975817     1.8885482036
 ----------------------------------------------------------------
 Nuclear Repulsion Energy =    66.9760287205 hartrees
 There are       13 alpha and       13 beta electrons
 Applying Cartesian multipole field
    Component          Value
    ---------          -----
     (2,0,0)        1.00000E-11
     (0,2,0)        2.00000E-10
     (0,0,2)       -3.00000E-11
 Nucleus-field energy     =     0.0000000025 hartrees
 Requested basis set is 6-31G(d,p)
 There are 27 shells and 70 basis functions
 A cutoff of  1.0D-11 yielded    364 shell pairs
 There are      2516 function pairs
 Smallest overlap matrix eigenvalue = 7.21E-03
 Guess MOs from SCF MO coefficient file

 -----------------------------------------------------------------------
  General SCF calculation program by
  Eric Jon Sundstrom, Paul Horn, Yuezhi Mao, Dmitri Zuev, Alec White,
  David Stuck, Shaama M.S., Shane Yost, Joonho Lee, David Small,
  Daniel Levine, Susi Lehtola, Hugh Burton, Evgeny Epifanovsky
 -----------------------------------------------------------------------
 Exchange:     0.2000 Hartree-Fock + 0.0800 Slater + 0.7200 B88
 Correlation:  0.1900 VWN1RPA + 0.8100 LYP
 Using SG-1 standard quadrature grid
 using 8 threads for integral computing
 -------------------------------------------------------
 OpenMP Integral computing Module                
 Release: version 1.0, May 2013, Q-Chem Inc. Pittsburgh 
 -------------------------------------------------------
 -------------------------------------------------------
 OpenMP BLAS3 based DFT computing Module                
 Release: version 1.0, May 2013, Q-Chem Inc. Pittsburgh 
 -------------------------------------------------------
 A restricted SCF calculation will be
 performed using DIIS
 SCF converges when DIIS error is below 1.0e-08
 ---------------------------------------
  Cycle       Energy         DIIS error
 ---------------------------------------
    1    -178.9605367503      1.89e-03  
    2    -178.9629464652      1.19e-03  
    3    -178.9632387325      8.56e-04  
    4    -178.9635335667      1.20e-04  
    5    -178.9635409045      3.69e-05  
    6    -178.9635415852      1.90e-05  
    7    -178.9635418169      2.96e-06  
    8    -178.9635418233      2.77e-07  
    9    -178.9635418234      4.60e-08  
   10    -178.9635418234      6.20e-09  Convergence criterion met
 ---------------------------------------
 SCF time:   CPU 4.52s  wall 1.00s 
 SCF   energy in the final basis set =     -178.9635418234
 Total energy in the final basis set =     -178.9635418234
 
 --------------------------------------------------------------
 
                    Orbital Energies (a.u.)
 --------------------------------------------------------------
 
 Alpha MOs
 -- Occupied --
-24.659 -10.185 -10.180  -1.109  -0.744  -0.571  -0.466  -0.465
 -0.390  -0.361  -0.359  -0.352  -0.240
 -- Virtual --
 -0.020   0.014   0.114   0.147   0.172   0.247   0.308   0.488
  0.578   0.578   0.635   0.652   0.690   0.752   0.821   0.839
  0.906   0.911   1.037   1.075   1.103   1.212   1.333   1.378
  1.399   1.551   1.629   1.655   1.666   1.850   1.861   1.918
  1.928   1.965   1.997   2.010   2.061   2.240   2.281   2.347
  2.420   2.449   2.469   2.490   2.572   2.646   2.704   2.842
  2.901   3.242   3.339   3.461   3.512   3.618   3.677   4.255
  4.520
 --------------------------------------------------------------
 
          Ground-State Mulliken Net Atomic Charges

     Atom                 Charge (a.u.)
  ----------------------------------------
      1 C                    -0.222226
      2 C                    -0.193534
      3 H                     0.365866
      4 F                    -0.354558
      5 H                     0.100954
      6 H                     0.100954
      7 H                     0.101272
      8 H                     0.101272
  ----------------------------------------
  Sum of atomic charges =    -0.000000

 -----------------------------------------------------------------
                    Cartesian Multipole Moments
 -----------------------------------------------------------------
    Charge (ESU x 10^10)
                -0.0000
    Dipole Moment (Debye)
         X      -0.9640      Y      -0.0000      Z      -1.7749
       Tot       2.0198
    Quadrupole Moments (Debye-Ang)
        XX     -22.7629     XY       0.0000     YY     -17.5807
        XZ      -4.2509     YZ       0.0000     ZZ     -15.2779
    Octopole Moments (Debye-Ang^2)
       XXX     -47.0289    XXY      -0.0000    XYY     -13.6204
       YYY      -0.0000    XXZ     -17.4243    XYZ      -0.0000
       YYZ      -7.3291    XZZ      -7.1857    YZZ      -0.0000
       ZZZ     -27.3398
    Hexadecapole Moments (Debye-Ang^3)
      XXXX    -249.6698   XXXY      -0.0000   XXYY     -42.5673
      XYYY       0.0000   YYYY     -29.7528   XXXZ      -6.8578
      XXYZ       0.0000   XYYZ       2.5474   YYYZ       0.0000
      XXZZ     -42.5721   XYZZ       0.0000   YYZZ     -21.7044
      XZZZ      -1.1316   YZZZ      -0.0000   ZZZZ    -110.5883
 -----------------------------------------------------------------
 Calculating analytic gradient of the SCF energy
 Gradient of SCF Energy
            1           2           3           4           5           6
    1   0.0292318   0.0263725  -0.0319385   0.0176765  -0.0100166  -0.0100166
    2  -0.0000000  -0.0000000  -0.0000000  -0.0000000   0.0000806  -0.0000806
    3  -0.0692803   0.0625424  -0.1165215   0.1194820   0.0113209   0.0113209
            7           8
    1  -0.0106546  -0.0106546
    2  -0.0000788   0.0000788
    3  -0.0094322  -0.0094322
 Max gradient component =       1.195E-01
 RMS gradient           =       4.098E-02
 Gradient time:  CPU 2.56 s  wall 0.32 s
 Geometry Optimization Parameters
   NAtoms,    NIC,     NZ,  NCons,   NDum,   NFix, NCnnct, MaxDiis
        8      80       8       0       0       0       0       0

 Cartesian Hessian Update
 Hessian Updated using BFGS Update


** GEOMETRY OPTIMIZATION IN DELOCALIZED INTERNAL COORDINATES **
   Searching for a Minimum

   Optimization Cycle:   2

                       Coordinates (Angstroms)
     ATOM                X               Y               Z
      1  C        -0.0199834486    0.0000000000    0.0119869680
      2  C        -0.0193811673    0.0000000000    1.3979528415
      3  H         2.1854685280    0.0000000000   -1.1831801533
      4  F         2.4977989599    0.0000000000   -0.0679495721
      5  H        -0.2566007394   -0.9454613140   -0.4579532456
      6  H        -0.2566007394    0.9454613140   -0.4579532456
      7  H        -0.2337526929    0.9404975817    1.8885482036
      8  H        -0.2337526929   -0.9404975817    1.8885482036
   Point Group: c1    Number of degrees of freedom:    18


   Energy is   -178.963541823

 Hessian Updated using BFGS Update

 11 Hessian modes will be used to form the next step
  Hessian Eigenvalues:
     0.019830    0.025153    0.034920    0.036272    0.062220    0.089198
     0.102140    0.162357    0.313966    0.360015    0.547246

 Minimum Search - Taking Simple RFO Step
 Searching for Lamda that Minimizes Along All modes
 Value Taken    Lamda =  -0.10273798
 Calculated Step too Large.  Step scaled by  0.350483
 Step Taken.  Stepsize is  0.300000

                             Maximum     Tolerance    Cnvgd?
         Gradient           0.114022      0.000300      NO
         Displacement       0.287803      0.001200      NO
         Energy change     -0.038057      0.000001      NO


 New Cartesian Coordinates Obtained by Inverse Iteration

 Displacement from previous Coordinates is:  0.189614
 ----------------------------------------------------------------
             Standard Nuclear Orientation (Angstroms)
    I     Atom           X                Y                Z
 ----------------------------------------------------------------
    1      C      -0.0320041555     0.0000000000     0.0233797279
    2      C      -0.0341560923     0.0000000000     1.3824734421
    3      H       2.2095378334     0.0000000000    -1.1216266812
    4      F       2.4880546679     0.0000000000    -0.1365014696
    5      H      -0.2535809775    -0.9447401565    -0.4583402428
    6      H      -0.2535809775     0.9447401565    -0.4583402428
    7      H      -0.2305371456     0.9348977583     1.8944777332
    8      H      -0.2305371456    -0.9348977583     1.8944777332
 ----------------------------------------------------------------
 Nuclear Repulsion Energy =    67.6807220661 hartrees
 There are       13 alpha and       13 beta electrons
 Applying Cartesian multipole field
    Component          Value
    ---------          -----
     (2,0,0)        1.00000E-11
     (0,2,0)        2.00000E-10
     (0,0,2)       -3.00000E-11
 Nucleus-field energy     =     0.0000000025 hartrees
 Requested basis set is 6-31G(d,p)
 There are 27 shells and 70 basis functions
 A cutoff of  1.0D-11 yielded    364 shell pairs
 There are      2516 function pairs
 Smallest overlap matrix eigenvalue = 6.69E-03
 Guess MOs from SCF MO coefficient file

 -----------------------------------------------------------------------
  General SCF calculation program by
  Eric Jon Sundstrom, Paul Horn, Yuezhi Mao, Dmitri Zuev, Alec White,
  David Stuck, Shaama M.S., Shane Yost, Joonho Lee, David Small,
  Daniel Levine, Susi Lehtola, Hugh Burton, Evgeny Epifanovsky
 -----------------------------------------------------------------------
 Exchange:     0.2000 Hartree-Fock + 0.0800 Slater + 0.7200 B88
 Correlation:  0.1900 VWN1RPA + 0.8100 LYP
 Using SG-1 standard quadrature grid
 using 8 threads for integral computing
 -------------------------------------------------------
 OpenMP Integral computing Module                
 Release: version 1.0, May 2013, Q-Chem Inc. Pittsburgh 
 -------------------------------------------------------
 -------------------------------------------------------
 OpenMP BLAS3 based DFT computing Module                
 Release: version 1.0, May 2013, Q-Chem Inc. Pittsburgh 
 -------------------------------------------------------
 A restricted SCF calculation will be
 performed using DIIS
 SCF converges when DIIS error is below 1.0e-08
 ---------------------------------------
  Cycle       Energy         DIIS error
 ---------------------------------------
    1    -178.9905907087      2.48e-03  
    2    -178.9940422934      1.33e-03  
    3    -178.9943484314      9.65e-04  
    4    -178.9947007872      9.13e-05  
    5    -178.9947037862      4.60e-05  
    6    -178.9947050805      1.37e-05  
    7    -178.9947051923      3.87e-06  
    8    -178.9947052022      2.41e-07  
    9    -178.9947052022      2.90e-08  
   10    -178.9947052022      3.81e-09  Convergence criterion met
 ---------------------------------------
 SCF time:   CPU 4.49s  wall 1.00s 
 SCF   energy in the final basis set =     -178.9947052022
 Total energy in the final basis set =     -178.9947052022
 
 --------------------------------------------------------------
 
                    Orbital Energies (a.u.)
 --------------------------------------------------------------
 
 Alpha MOs
 -- Occupied --
-24.659 -10.181 -10.177  -1.136  -0.748  -0.569  -0.492  -0.466
 -0.396  -0.371  -0.364  -0.352  -0.245
 -- Virtual --
  0.002   0.049   0.117   0.145   0.173   0.248   0.318   0.483
  0.576   0.580   0.638   0.662   0.705   0.778   0.825   0.836
  0.907   0.914   1.050   1.080   1.115   1.216   1.337   1.379
  1.399   1.556   1.618   1.641   1.644   1.848   1.857   1.919
  1.925   1.977   2.005   2.022   2.238   2.270   2.315   2.369
  2.437   2.481   2.581   2.606   2.613   2.663   2.716   2.837
  2.931   3.225   3.340   3.494   3.579   3.654   3.729   4.259
  4.529
 --------------------------------------------------------------
 
          Ground-State Mulliken Net Atomic Charges

     Atom                 Charge (a.u.)
  ----------------------------------------
      1 C                    -0.218157
      2 C                    -0.192413
      3 H                     0.368219
      4 F                    -0.352129
      5 H                     0.098451
      6 H                     0.098451
      7 H                     0.098789
      8 H                     0.098789
  ----------------------------------------
  Sum of atomic charges =    -0.000000

 -----------------------------------------------------------------
                    Cartesian Multipole Moments
 -----------------------------------------------------------------
    Charge (ESU x 10^10)
                -0.0000
    Dipole Moment (Debye)
         X      -0.8468      Y       0.0000      Z      -1.6851
       Tot       1.8859
    Quadrupole Moments (Debye-Ang)
        XX     -22.3913     XY      -0.0000     YY     -17.5104
        XZ      -4.0166     YZ       0.0000     ZZ     -15.3584
    Octopole Moments (Debye-Ang^2)
       XXX     -45.0311    XXY       0.0000    XYY     -13.1478
       YYY       0.0000    XXZ     -16.8316    XYZ      -0.0000
       YYZ      -7.1809    XZZ      -7.1894    YZZ      -0.0000
       ZZZ     -26.1286
    Hexadecapole Moments (Debye-Ang^3)
      XXXX    -243.2215   XXXY      -0.0000   XXYY     -41.7635
      XYYY      -0.0000   YYYY     -29.6851   XXXZ      -4.2362
      XXYZ      -0.0000   XYYZ       3.2291   YYYZ       0.0000
      XXZZ     -42.4836   XYZZ      -0.0000   YYZZ     -21.4386
      XZZZ       1.7474   YZZZ      -0.0000   ZZZZ    -108.8741
 -----------------------------------------------------------------
 Calculating analytic gradient of the SCF energy
 Gradient of SCF Energy
            1           2           3           4           5           6
    1   0.0292445   0.0254610  -0.0209860   0.0071485  -0.0099967  -0.0099967
    2   0.0000000  -0.0000000   0.0000000  -0.0000000  -0.0006752   0.0006752
    3  -0.0453520   0.0353566  -0.0760559   0.0794662   0.0106355   0.0106355
            7           8
    1  -0.0104373  -0.0104373
    2   0.0000420  -0.0000420
    3  -0.0073430  -0.0073430
 Max gradient component =       7.947E-02
 RMS gradient           =       2.750E-02
 Gradient time:  CPU 2.56 s  wall 0.32 s
 Geometry Optimization Parameters
   NAtoms,    NIC,     NZ,  NCons,   NDum,   NFix, NCnnct, MaxDiis
        8      80       8       0       0       0       0       0

 Cartesian Hessian Update
 Hessian Updated using BFGS Update


** GEOMETRY OPTIMIZATION IN DELOCALIZED INTERNAL COORDINATES **
   Searching for a Minimum

   Optimization Cycle:   3

                       Coordinates (Angstroms)
     ATOM                X               Y               Z
      1  C        -0.0320041555    0.0000000000    0.0233797279
      2  C        -0.0341560923    0.0000000000    1.3824734421
      3  H         2.2095378334    0.0000000000   -1.1216266812
      4  F         2.4880546679    0.0000000000   -0.1365014696
      5  H        -0.2535809775   -0.9447401565   -0.4583402428
      6  H        -0.2535809775    0.9447401565   -0.4583402428
      7  H        -0.2305371456    0.9348977583    1.8944777332
      8  H        -0.2305371456   -0.9348977583    1.8944777332
   Point Group: c1    Number of degrees of freedom:    18


   Energy is   -178.994705202

 Hessian Updated using BFGS Update

 11 Hessian modes will be used to form the next step
  Hessian Eigenvalues:
     0.020512    0.025780    0.036271    0.051788    0.088815    0.100342
     0.138761    0.166100    0.314017    0.360000    0.554186

 Minimum Search - Taking Simple RFO Step
 Searching for Lamda that Minimizes Along All modes
 Value Taken    Lamda =  -0.04122690
 Calculated Step too Large.  Step scaled by  0.538417
 Step Taken.  Stepsize is  0.300000

                             Maximum     Tolerance    Cnvgd?
         Gradient           0.075245      0.000300      NO
         Displacement       0.246165      0.001200      NO
         Energy change     -0.031163      0.000001      NO


 New Cartesian Coordinates Obtained by Inverse Iteration

 Displacement from previous Coordinates is:  0.185087
 ----------------------------------------------------------------
             Standard Nuclear Orientation (Angstroms)
    I     Atom           X                Y                Z
 ----------------------------------------------------------------
    1      C      -0.0566362917     0.0000000000     0.0279466111
    2      C      -0.0639767280     0.0000000000     1.3738135913
    3      H       2.2357315510     0.0000000000    -1.0708271940
    4      F       2.4870333771     0.0000000000    -0.1916044931
    5      H      -0.2513791742    -0.9424947126    -0.4740681551
    6      H      -0.2513791742     0.9424947126    -0.4740681551
    7      H      -0.2180987764     0.9286109268     1.9144038974
    8      H      -0.2180987764    -0.9286109268     1.9144038974
 ----------------------------------------------------------------
 Nuclear Repulsion Energy =    68.0250298364 hartrees
 There are       13 alpha and       13 beta electrons
 Applying Cartesian multipole field
    Component          Value
    ---------          -----
     (2,0,0)        1.00000E-11
     (0,2,0)        2.00000E-10
     (0,0,2)       -3.00000E-11
 Nucleus-field energy     =     0.0000000025 hartrees
 Requested basis set is 6-31G(d,p)
 There are 27 shells and 70 basis functions
 A cutoff of  1.0D-11 yielded    364 shell pairs
 There are      2516 function pairs
 Smallest overlap matrix eigenvalue = 6.52E-03
 Guess MOs from SCF MO coefficient file

 -----------------------------------------------------------------------
  General SCF calculation program by
  Eric Jon Sundstrom, Paul Horn, Yuezhi Mao, Dmitri Zuev, Alec White,
  David Stuck, Shaama M.S., Shane Yost, Joonho Lee, David Small,
  Daniel Levine, Susi Lehtola, Hugh Burton, Evgeny Epifanovsky
 -----------------------------------------------------------------------
 Exchange:     0.2000 Hartree-Fock + 0.0800 Slater + 0.7200 B88
 Correlation:  0.1900 VWN1RPA + 0.8100 LYP
 Using SG-1 standard quadrature grid
 using 8 threads for integral computing
 -------------------------------------------------------
 OpenMP Integral computing Module                
 Release: version 1.0, May 2013, Q-Chem Inc. Pittsburgh 
 -------------------------------------------------------
 -------------------------------------------------------
 OpenMP BLAS3 based DFT computing Module                
 Release: version 1.0, May 2013, Q-Chem Inc. Pittsburgh 
 -------------------------------------------------------
 A restricted SCF calculation will be
 performed using DIIS
 SCF converges when DIIS error is below 1.0e-08
 ---------------------------------------
  Cycle       Energy         DIIS error
 ---------------------------------------
    1    -179.0040516079      2.60e-03  
    2    -179.0076325182      1.13e-03  
    3    -179.0078282608      8.63e-04  
    4    -179.0080951262      6.68e-05  
    5    -179.0080967597      2.59e-05  
    6    -179.0080971156      1.20e-05  
    7    -179.0080972031      3.07e-06  
    8    -179.0080972092      2.02e-07  
    9    -179.0080972092      2.97e-08  
   10    -179.0080972092      4.97e-09  Convergence criterion met
 ---------------------------------------
 SCF time:   CPU 4.49s  wall 1.00s 
 SCF   energy in the final basis set =     -179.0080972092
 Total energy in the final basis set =     -179.0080972092
 
 --------------------------------------------------------------
 
                    Orbital Energies (a.u.)
 --------------------------------------------------------------
 
 Alpha MOs
 -- Occupied --
-24.657 -10.180 -10.176  -1.167  -0.750  -0.570  -0.515  -0.465
 -0.401  -0.379  -0.373  -0.351  -0.249
 -- Virtual --
  0.010   0.084   0.121   0.144   0.172   0.248   0.325   0.480
  0.573   0.577   0.640   0.670   0.710   0.825   0.827   0.838
  0.909   0.917   1.070   1.079   1.124   1.222   1.340   1.385
  1.397   1.549   1.609   1.631   1.639   1.849   1.853   1.912
  1.920   1.977   2.018   2.022   2.232   2.252   2.379   2.457
  2.469   2.550   2.595   2.651   2.724   2.739   2.764   2.808
  2.963   3.205   3.340   3.491   3.686   3.690   3.780   4.259
  4.530
 --------------------------------------------------------------
 
          Ground-State Mulliken Net Atomic Charges

     Atom                 Charge (a.u.)
  ----------------------------------------
      1 C                    -0.214638
      2 C                    -0.191776
      3 H                     0.344210
      4 F                    -0.327568
      5 H                     0.096789
      6 H                     0.096789
      7 H                     0.098096
      8 H                     0.098096
  ----------------------------------------
  Sum of atomic charges =    -0.000000

 -----------------------------------------------------------------
                    Cartesian Multipole Moments
 -----------------------------------------------------------------
    Charge (ESU x 10^10)
                -0.0000
    Dipole Moment (Debye)
         X      -0.7326      Y      -0.0000      Z      -1.5695
       Tot       1.7320
    Quadrupole Moments (Debye-Ang)
        XX     -22.1944     XY       0.0000     YY     -17.4610
        XZ      -3.7381     YZ      -0.0000     ZZ     -15.2726
    Octopole Moments (Debye-Ang^2)
       XXX     -43.0544    XXY      -0.0000    XYY     -12.5742
       YYY      -0.0000    XXZ     -16.3370    XYZ      -0.0000
       YYZ      -7.0589    XZZ      -6.9909    YZZ      -0.0000
       ZZZ     -24.7452
    Hexadecapole Moments (Debye-Ang^3)
      XXXX    -239.3766   XXXY      -0.0000   XXYY     -41.2829
      XYYY      -0.0000   YYYY     -29.6035   XXXZ      -1.7058
      XXYZ      -0.0000   XYYZ       3.9360   YYYZ      -0.0000
      XXZZ     -42.8698   XYZZ       0.0000   YYZZ     -21.2621
      XZZZ       4.6133   YZZZ      -0.0000   ZZZZ    -107.6663
 -----------------------------------------------------------------
 Calculating analytic gradient of the SCF energy
 Gradient of SCF Energy
            1           2           3           4           5           6
    1   0.0277866   0.0208520   0.0043833  -0.0167802  -0.0092982  -0.0092982
    2   0.0000000  -0.0000000  -0.0000000   0.0000000  -0.0015650   0.0015650
    3  -0.0303376   0.0185644   0.0124383  -0.0092300   0.0081720   0.0081720
            7           8
    1  -0.0088227  -0.0088227
    2   0.0000335  -0.0000335
    3  -0.0038896  -0.0038896
 Max gradient component =       3.034E-02
 RMS gradient           =       1.209E-02
 Gradient time:  CPU 2.54 s  wall 0.32 s
 Geometry Optimization Parameters
   NAtoms,    NIC,     NZ,  NCons,   NDum,   NFix, NCnnct, MaxDiis
        8      80       8       0       0       0       0       0

 Cartesian Hessian Update
 Hessian Updated using BFGS Update


** GEOMETRY OPTIMIZATION IN DELOCALIZED INTERNAL COORDINATES **
   Searching for a Minimum

   Optimization Cycle:   4

                       Coordinates (Angstroms)
     ATOM                X               Y               Z
      1  C        -0.0566362917    0.0000000000    0.0279466111
      2  C        -0.0639767280    0.0000000000    1.3738135913
      3  H         2.2357315510    0.0000000000   -1.0708271940
      4  F         2.4870333771    0.0000000000   -0.1916044931
      5  H        -0.2513791742   -0.9424947126   -0.4740681551
      6  H        -0.2513791742    0.9424947126   -0.4740681551
      7  H        -0.2180987764    0.9286109268    1.9144038974
      8  H        -0.2180987764   -0.9286109268    1.9144038974
   Point Group: c1    Number of degrees of freedom:    18


   Energy is   -179.008097209

 Hessian Updated using BFGS Update

 11 Hessian modes will be used to form the next step
  Hessian Eigenvalues:
     0.020535    0.025244    0.036264    0.050204    0.088318    0.100674
     0.159081    0.313333    0.359898    0.383195    0.546967

 Minimum Search - Taking Simple RFO Step
 Searching for Lamda that Minimizes Along All modes
 Value Taken    Lamda =  -0.00980474
 Calculated Step too Large.  Step scaled by  0.640518
 Step Taken.  Stepsize is  0.300000

                             Maximum     Tolerance    Cnvgd?
         Gradient           0.013743      0.000300      NO
         Displacement       0.232040      0.001200      NO
         Energy change     -0.013392      0.000001      NO


 New Cartesian Coordinates Obtained by Inverse Iteration

 Displacement from previous Coordinates is:  0.167087
 ----------------------------------------------------------------
             Standard Nuclear Orientation (Angstroms)
    I     Atom           X                Y                Z
 ----------------------------------------------------------------
    1      C      -0.0958066605     0.0000000000     0.0281251724
    2      C      -0.1062327596     0.0000000000     1.3673173881
    3      H       2.2488383478     0.0000000000    -1.0623070673
    4      F       2.5060854989     0.0000000000    -0.1798409402
    5      H      -0.2588156644    -0.9383414110    -0.4965436045
    6      H      -0.2588156644     0.9383414110    -0.4965436045
    7      H      -0.1860285453     0.9256441107     1.9298963280
    8      H      -0.1860285453    -0.9256441107     1.9298963280
 ----------------------------------------------------------------
 Nuclear Repulsion Energy =    67.5876460071 hartrees
 There are       13 alpha and       13 beta electrons
 Applying Cartesian multipole field
    Component          Value
    ---------          -----
     (2,0,0)        1.00000E-11
     (0,2,0)        2.00000E-10
     (0,0,2)       -3.00000E-11
 Nucleus-field energy     =     0.0000000025 hartrees
 Requested basis set is 6-31G(d,p)
 There are 27 shells and 70 basis functions
 A cutoff of  1.0D-11 yielded    364 shell pairs
 There are      2516 function pairs
 Smallest overlap matrix eigenvalue = 6.56E-03
 Guess MOs from SCF MO coefficient file

 -----------------------------------------------------------------------
  General SCF calculation program by
  Eric Jon Sundstrom, Paul Horn, Yuezhi Mao, Dmitri Zuev, Alec White,
  David Stuck, Shaama M.S., Shane Yost, Joonho Lee, David Small,
  Daniel Levine, Susi Lehtola, Hugh Burton, Evgeny Epifanovsky
 -----------------------------------------------------------------------
 Exchange:     0.2000 Hartree-Fock + 0.0800 Slater + 0.7200 B88
 Correlation:  0.1900 VWN1RPA + 0.8100 LYP
 Using SG-1 standard quadrature grid
 using 8 threads for integral computing
 -------------------------------------------------------
 OpenMP Integral computing Module                
 Release: version 1.0, May 2013, Q-Chem Inc. Pittsburgh 
 -------------------------------------------------------
 -------------------------------------------------------
 OpenMP BLAS3 based DFT computing Module                
 Release: version 1.0, May 2013, Q-Chem Inc. Pittsburgh 
 -------------------------------------------------------
 A restricted SCF calculation will be
 performed using DIIS
 SCF converges when DIIS error is below 1.0e-08
 ---------------------------------------
  Cycle       Energy         DIIS error
 ---------------------------------------
    1    -179.0124935784      9.16e-04  
    2    -179.0133259381      1.58e-04  
    3    -179.0133359676      1.31e-04  
    4    -179.0133447685      3.00e-05  
    5    -179.0133451621      1.02e-05  
    6    -179.0133452207      3.85e-06  
    7    -179.0133452297      1.13e-06  
    8    -179.0133452304      9.56e-08  
    9    -179.0133452304      1.27e-08  
   10    -179.0133452304      1.41e-09  Convergence criterion met
 ---------------------------------------
 SCF time:   CPU 4.44s  wall 1.00s 
 SCF   energy in the final basis set =     -179.0133452304
 Total energy in the final basis set =     -179.0133452304
 
 --------------------------------------------------------------
 
                    Orbital Energies (a.u.)
 --------------------------------------------------------------
 
 Alpha MOs
 -- Occupied --
-24.658 -10.181 -10.177  -1.166  -0.750  -0.572  -0.514  -0.463
 -0.406  -0.378  -0.372  -0.350  -0.252
 -- Virtual --
  0.014   0.082   0.123   0.143   0.167   0.246   0.329   0.478
  0.569   0.573   0.641   0.663   0.705   0.823   0.829   0.841
  0.909   0.918   1.078   1.097   1.122   1.226   1.336   1.396
  1.398   1.535   1.574   1.628   1.636   1.847   1.857   1.905
  1.915   1.979   2.028   2.029   2.216   2.228   2.378   2.457
  2.487   2.538   2.620   2.633   2.733   2.741   2.758   2.767
  2.984   3.190   3.340   3.485   3.678   3.720   3.768   4.253
  4.527
 --------------------------------------------------------------
 
          Ground-State Mulliken Net Atomic Charges

     Atom                 Charge (a.u.)
  ----------------------------------------
      1 C                    -0.212374
      2 C                    -0.189267
      3 H                     0.346772
      4 F                    -0.332684
      5 H                     0.095115
      6 H                     0.095115
      7 H                     0.098661
      8 H                     0.098661
  ----------------------------------------
  Sum of atomic charges =    -0.000000

 -----------------------------------------------------------------
                    Cartesian Multipole Moments
 -----------------------------------------------------------------
    Charge (ESU x 10^10)
                -0.0000
    Dipole Moment (Debye)
         X      -0.6386      Y      -0.0000      Z      -1.5420
       Tot       1.6690
    Quadrupole Moments (Debye-Ang)
        XX     -22.3662     XY       0.0000     YY     -17.4985
        XZ      -3.6134     YZ      -0.0000     ZZ     -15.0353
    Octopole Moments (Debye-Ang^2)
       XXX     -42.3537    XXY      -0.0000    XYY     -12.1614
       YYY      -0.0000    XXZ     -16.5235    XYZ      -0.0000
       YYZ      -7.0671    XZZ      -6.3671    YZZ      -0.0000
       ZZZ     -24.1674
    Hexadecapole Moments (Debye-Ang^3)
      XXXX    -244.1627   XXXY       0.0000   XXYY     -41.9014
      XYYY      -0.0000   YYYY     -29.6014   XXXZ      -1.6288
      XXYZ      -0.0000   XYYZ       4.1945   YYYZ      -0.0000
      XXZZ     -43.4560   XYZZ       0.0000   YYZZ     -21.0438
      XZZZ       5.6614   YZZZ      -0.0000   ZZZZ    -106.0803
 -----------------------------------------------------------------
 Calculating analytic gradient of the SCF energy
 Gradient of SCF Energy
            1           2           3           4           5           6
    1   0.0251521   0.0113711   0.0028837  -0.0132743  -0.0078173  -0.0078173
    2   0.0000000   0.0000000   0.0000000   0.0000000  -0.0019722   0.0019722
    3  -0.0198769   0.0098370   0.0065972  -0.0041799   0.0051447   0.0051447
            7           8
    1  -0.0052490  -0.0052490
    2   0.0001209  -0.0001209
    3  -0.0013334  -0.0013334
 Max gradient component =       2.515E-02
 RMS gradient           =       8.517E-03
 Gradient time:  CPU 2.57 s  wall 0.32 s
 Geometry Optimization Parameters
   NAtoms,    NIC,     NZ,  NCons,   NDum,   NFix, NCnnct, MaxDiis
        8      80       8       0       0       0       0       0

 Cartesian Hessian Update
 Hessian Updated using BFGS Update


** GEOMETRY OPTIMIZATION IN DELOCALIZED INTERNAL COORDINATES **
   Searching for a Minimum

   Optimization Cycle:   5

                       Coordinates (Angstroms)
     ATOM                X               Y               Z
      1  C        -0.0958066605    0.0000000000    0.0281251724
      2  C        -0.1062327596    0.0000000000    1.3673173881
      3  H         2.2488383478    0.0000000000   -1.0623070673
      4  F         2.5060854989    0.0000000000   -0.1798409402
      5  H        -0.2588156644   -0.9383414110   -0.4965436045
      6  H        -0.2588156644    0.9383414110   -0.4965436045
      7  H        -0.1860285453    0.9256441107    1.9298963280
      8  H        -0.1860285453   -0.9256441107    1.9298963280
   Point Group: c1    Number of degrees of freedom:    18


   Energy is   -179.013345230

 Hessian Updated using BFGS Update

 11 Hessian modes will be used to form the next step
  Hessian Eigenvalues:
     0.017071    0.025235    0.036509    0.039000    0.087181    0.100602
     0.164594    0.313973    0.359916    0.381026    0.538861

 Minimum Search - Taking Simple RFO Step
 Searching for Lamda that Minimizes Along All modes
 Value Taken    Lamda =  -0.00782166
 Calculated Step too Large.  Step scaled by  0.578222
 Step Taken.  Stepsize is  0.300000

                             Maximum     Tolerance    Cnvgd?
         Gradient           0.009569      0.000300      NO
         Displacement       0.202196      0.001200      NO
         Energy change     -0.005248      0.000001      NO


 New Cartesian Coordinates Obtained by Inverse Iteration

 Displacement from previous Coordinates is:  0.145871
 ----------------------------------------------------------------
             Standard Nuclear Orientation (Angstroms)
    I     Atom           X                Y                Z
 ----------------------------------------------------------------
    1      C      -0.1383808003     0.0000000000     0.0374335112
    2      C      -0.1427255386     0.0000000000     1.3672499855
    3      H       2.2639525658     0.0000000000    -1.0606175343
    4      F       2.5396505455     0.0000000000    -0.1814577279
    5      H      -0.2623272524    -0.9318520337    -0.5103521650
    6      H      -0.2623272524     0.9318520337    -0.5103521650
    7      H      -0.1673231302     0.9234565408     1.9390480477
    8      H      -0.1673231302    -0.9234565408     1.9390480477
 ----------------------------------------------------------------
 Nuclear Repulsion Energy =    67.0748342347 hartrees
 There are       13 alpha and       13 beta electrons
 Applying Cartesian multipole field
    Component          Value
    ---------          -----
     (2,0,0)        1.00000E-11
     (0,2,0)        2.00000E-10
     (0,0,2)       -3.00000E-11
 Nucleus-field energy     =     0.0000000025 hartrees
 Requested basis set is 6-31G(d,p)
 There are 27 shells and 70 basis functions
 A cutoff of  1.0D-11 yielded    364 shell pairs
 There are      2516 function pairs
 Smallest overlap matrix eigenvalue = 6.51E-03
 Guess MOs from SCF MO coefficient file

 -----------------------------------------------------------------------
  General SCF calculation program by
  Eric Jon Sundstrom, Paul Horn, Yuezhi Mao, Dmitri Zuev, Alec White,
  David Stuck, Shaama M.S., Shane Yost, Joonho Lee, David Small,
  Daniel Levine, Susi Lehtola, Hugh Burton, Evgeny Epifanovsky
 -----------------------------------------------------------------------
 Exchange:     0.2000 Hartree-Fock + 0.0800 Slater + 0.7200 B88
 Correlation:  0.1900 VWN1RPA + 0.8100 LYP
 Using SG-1 standard quadrature grid
 using 8 threads for integral computing
 -------------------------------------------------------
 OpenMP Integral computing Module                
 Release: version 1.0, May 2013, Q-Chem Inc. Pittsburgh 
 -------------------------------------------------------
 -------------------------------------------------------
 OpenMP BLAS3 based DFT computing Module                
 Release: version 1.0, May 2013, Q-Chem Inc. Pittsburgh 
 -------------------------------------------------------
 A restricted SCF calculation will be
 performed using DIIS
 SCF converges when DIIS error is below 1.0e-08
 ---------------------------------------
  Cycle       Energy         DIIS error
 ---------------------------------------
    1    -179.0163353032      8.24e-04  
    2    -179.0170017580      1.67e-04  
    3    -179.0170102356      1.43e-04  
    4    -179.0170214509      3.07e-05  
    5    -179.0170218728      1.32e-05  
    6    -179.0170219811      3.00e-06  
    7    -179.0170219861      1.16e-06  
    8    -179.0170219867      8.96e-08  
    9    -179.0170219867      1.16e-08  
   10    -179.0170219867      8.15e-10  Convergence criterion met
 ---------------------------------------
 SCF time:   CPU 4.43s  wall 1.00s 
 SCF   energy in the final basis set =     -179.0170219867
 Total energy in the final basis set =     -179.0170219867
 
 --------------------------------------------------------------
 
                    Orbital Energies (a.u.)
 --------------------------------------------------------------
 
 Alpha MOs
 -- Occupied --
-24.658 -10.181 -10.178  -1.165  -0.752  -0.573  -0.514  -0.463
 -0.410  -0.377  -0.372  -0.349  -0.256
 -- Virtual --
  0.016   0.080   0.125   0.142   0.165   0.245   0.332   0.475
  0.563   0.570   0.643   0.657   0.705   0.823   0.830   0.843
  0.911   0.919   1.080   1.118   1.118   1.226   1.328   1.395
  1.404   1.516   1.548   1.626   1.633   1.842   1.861   1.897
  1.910   1.986   2.036   2.038   2.193   2.222   2.377   2.448
  2.508   2.534   2.625   2.643   2.728   2.734   2.747   2.761
  3.006   3.177   3.343   3.479   3.672   3.748   3.757   4.245
  4.524
 --------------------------------------------------------------
 
          Ground-State Mulliken Net Atomic Charges

     Atom                 Charge (a.u.)
  ----------------------------------------
      1 C                    -0.209576
      2 C                    -0.187476
      3 H                     0.348650
      4 F                    -0.337333
      5 H                     0.093620
      6 H                     0.093620
      7 H                     0.099248
      8 H                     0.099248
  ----------------------------------------
  Sum of atomic charges =    -0.000000

 -----------------------------------------------------------------
                    Cartesian Multipole Moments
 -----------------------------------------------------------------
    Charge (ESU x 10^10)
                -0.0000
    Dipole Moment (Debye)
         X      -0.5893      Y       0.0000      Z      -1.5318
       Tot       1.6412
    Quadrupole Moments (Debye-Ang)
        XX     -22.6299     XY       0.0000     YY     -17.5316
        XZ      -3.5055     YZ      -0.0000     ZZ     -14.8781
    Octopole Moments (Debye-Ang^2)
       XXX     -42.3192    XXY      -0.0000    XYY     -11.8332
       YYY      -0.0000    XXZ     -16.5903    XYZ       0.0000
       YYZ      -7.0911    XZZ      -5.8558    YZZ      -0.0000
       ZZZ     -23.9805
    Hexadecapole Moments (Debye-Ang^3)
      XXXX    -252.7638   XXXY      -0.0000   XXYY     -42.8897
      XYYY      -0.0000   YYYY     -29.5647   XXXZ      -0.6397
      XXYZ      -0.0000   XYYZ       4.5778   YYYZ      -0.0000
      XXZZ     -44.4240   XYZZ       0.0000   YYZZ     -20.9765
      XZZZ       6.9895   YZZZ      -0.0000   ZZZZ    -105.6090
 -----------------------------------------------------------------
 Calculating analytic gradient of the SCF energy
 Gradient of SCF Energy
            1           2           3           4           5           6
    1   0.0199059   0.0044531   0.0022703  -0.0102141  -0.0057976  -0.0057976
    2  -0.0000000  -0.0000000   0.0000000  -0.0000000  -0.0013892   0.0013892
    3  -0.0052865  -0.0007876   0.0038707  -0.0021995   0.0024547   0.0024547
            7           8
    1  -0.0024100  -0.0024100
    2   0.0000207  -0.0000207
    3  -0.0002533  -0.0002533
 Max gradient component =       1.991E-02
 RMS gradient           =       5.279E-03
 Gradient time:  CPU 2.53 s  wall 0.32 s
 Geometry Optimization Parameters
   NAtoms,    NIC,     NZ,  NCons,   NDum,   NFix, NCnnct, MaxDiis
        8      80       8       0       0       0       0       0

 Cartesian Hessian Update
 Hessian Updated using BFGS Update


** GEOMETRY OPTIMIZATION IN DELOCALIZED INTERNAL COORDINATES **
   Searching for a Minimum

   Optimization Cycle:   6

                       Coordinates (Angstroms)
     ATOM                X               Y               Z
      1  C        -0.1383808003    0.0000000000    0.0374335112
      2  C        -0.1427255386    0.0000000000    1.3672499855
      3  H         2.2639525658    0.0000000000   -1.0606175343
      4  F         2.5396505455    0.0000000000   -0.1814577279
      5  H        -0.2623272524   -0.9318520337   -0.5103521650
      6  H        -0.2623272524    0.9318520337   -0.5103521650
      7  H        -0.1673231302    0.9234565408    1.9390480477
      8  H        -0.1673231302   -0.9234565408    1.9390480477
   Point Group: c1    Number of degrees of freedom:    18


   Energy is   -179.017021987

 Hessian Updated using BFGS Update

 11 Hessian modes will be used to form the next step
  Hessian Eigenvalues:
     0.014844    0.025006    0.036880    0.037618    0.086542    0.100565
     0.165625    0.313887    0.359906    0.377395    0.573922

 Minimum Search - Taking Simple RFO Step
 Searching for Lamda that Minimizes Along All modes
 Value Taken    Lamda =  -0.00451429
 Calculated Step too Large.  Step scaled by  0.651404
 Step Taken.  Stepsize is  0.300000

                             Maximum     Tolerance    Cnvgd?
         Gradient           0.005977      0.000300      NO
         Displacement       0.175356      0.001200      NO
         Energy change     -0.003677      0.000001      NO


 New Cartesian Coordinates Obtained by Inverse Iteration

 Displacement from previous Coordinates is:  0.146760
 ----------------------------------------------------------------
             Standard Nuclear Orientation (Angstroms)
    I     Atom           X                Y                Z
 ----------------------------------------------------------------
    1      C      -0.1809524625     0.0000000000     0.0464091189
    2      C      -0.1758896119     0.0000000000     1.3739606985
    3      H       2.2812111999     0.0000000000    -1.0663951997
    4      F       2.5832548149     0.0000000000    -0.1931022666
    5      H      -0.2625298171    -0.9256181770    -0.5201996190
    6      H      -0.2625298171     0.9256181770    -0.5201996190
    7      H      -0.1596841495     0.9215413360     1.9497634435
    8      H      -0.1596841495    -0.9215413360     1.9497634435
 ----------------------------------------------------------------
 Nuclear Repulsion Energy =    66.3928909362 hartrees
 There are       13 alpha and       13 beta electrons
 Applying Cartesian multipole field
    Component          Value
    ---------          -----
     (2,0,0)        1.00000E-11
     (0,2,0)        2.00000E-10
     (0,0,2)       -3.00000E-11
 Nucleus-field energy     =     0.0000000025 hartrees
 Requested basis set is 6-31G(d,p)
 There are 27 shells and 70 basis functions
 A cutoff of  1.0D-11 yielded    362 shell pairs
 There are      2506 function pairs
 Smallest overlap matrix eigenvalue = 6.59E-03
 Guess MOs from SCF MO coefficient file

 -----------------------------------------------------------------------
  General SCF calculation program by
  Eric Jon Sundstrom, Paul Horn, Yuezhi Mao, Dmitri Zuev, Alec White,
  David Stuck, Shaama M.S., Shane Yost, Joonho Lee, David Small,
  Daniel Levine, Susi Lehtola, Hugh Burton, Evgeny Epifanovsky
 -----------------------------------------------------------------------
 Exchange:     0.2000 Hartree-Fock + 0.0800 Slater + 0.7200 B88
 Correlation:  0.1900 VWN1RPA + 0.8100 LYP
 Using SG-1 standard quadrature grid
 using 8 threads for integral computing
 -------------------------------------------------------
 OpenMP Integral computing Module                
 Release: version 1.0, May 2013, Q-Chem Inc. Pittsburgh 
 -------------------------------------------------------
 -------------------------------------------------------
 OpenMP BLAS3 based DFT computing Module                
 Release: version 1.0, May 2013, Q-Chem Inc. Pittsburgh 
 -------------------------------------------------------
 A restricted SCF calculation will be
 performed using DIIS
 SCF converges when DIIS error is below 1.0e-08
 ---------------------------------------
  Cycle       Energy         DIIS error
 ---------------------------------------
    1    -179.0187181405      7.76e-04  
    2    -179.0192863559      1.32e-04  
    3    -179.0192923841      1.18e-04  
    4    -179.0192982554      3.17e-05  
    5    -179.0192987160      1.13e-05  
    6    -179.0192987925      3.30e-06  
    7    -179.0192987989      6.35e-07  
    8    -179.0192987991      9.93e-08  
    9    -179.0192987991      1.06e-08  
   10    -179.0192987991      6.27e-10  Convergence criterion met
 ---------------------------------------
 SCF time:   CPU 4.51s  wall 1.00s 
 SCF   energy in the final basis set =     -179.0192987991
 Total energy in the final basis set =     -179.0192987991
 
 --------------------------------------------------------------
 
                    Orbital Energies (a.u.)
 --------------------------------------------------------------
 
 Alpha MOs
 -- Occupied --
-24.658 -10.182 -10.179  -1.164  -0.753  -0.575  -0.513  -0.462
 -0.414  -0.376  -0.372  -0.349  -0.259
 -- Virtual --
  0.016   0.079   0.126   0.140   0.163   0.244   0.333   0.474
  0.558   0.567   0.644   0.651   0.702   0.822   0.830   0.844
  0.912   0.919   1.081   1.113   1.133   1.221   1.317   1.392
  1.403   1.495   1.534   1.626   1.631   1.839   1.865   1.890
  1.905   1.984   2.039   2.048   2.172   2.216   2.375   2.443
  2.510   2.535   2.622   2.661   2.700   2.725   2.741   2.767
  3.022   3.169   3.342   3.469   3.666   3.746   3.765   4.234
  4.518
 --------------------------------------------------------------
 
          Ground-State Mulliken Net Atomic Charges

     Atom                 Charge (a.u.)
  ----------------------------------------
      1 C                    -0.208204
      2 C                    -0.187442
      3 H                     0.350571
      4 F                    -0.341944
      5 H                     0.093085
      6 H                     0.093085
      7 H                     0.100424
      8 H                     0.100424
  ----------------------------------------
  Sum of atomic charges =    -0.000000

 -----------------------------------------------------------------
                    Cartesian Multipole Moments
 -----------------------------------------------------------------
    Charge (ESU x 10^10)
                -0.0000
    Dipole Moment (Debye)
         X      -0.5696      Y       0.0000      Z      -1.5223
       Tot       1.6253
    Quadrupole Moments (Debye-Ang)
        XX     -22.9822     XY       0.0000     YY     -17.5658
        XZ      -3.4139     YZ      -0.0000     ZZ     -14.7414
    Octopole Moments (Debye-Ang^2)
       XXX     -42.7768    XXY      -0.0000    XYY     -11.5809
       YYY       0.0000    XXZ     -16.5700    XYZ       0.0000
       YYZ      -7.1068    XZZ      -5.4303    YZZ       0.0000
       ZZZ     -23.8972
    Hexadecapole Moments (Debye-Ang^3)
      XXXX    -264.3394   XXXY      -0.0000   XXYY     -44.1835
      XYYY      -0.0000   YYYY     -29.5217   XXXZ       1.1143
      XXYZ      -0.0000   XYYZ       5.0846   YYYZ      -0.0000
      XXZZ     -45.7450   XYZZ       0.0000   YYZZ     -21.0566
      XZZZ       8.5420   YZZZ      -0.0000   ZZZZ    -106.0573
 -----------------------------------------------------------------
 Calculating analytic gradient of the SCF energy
 Gradient of SCF Energy
            1           2           3           4           5           6
    1   0.0133783  -0.0004732   0.0013449  -0.0069756  -0.0034411  -0.0034411
    2   0.0000000  -0.0000000   0.0000000  -0.0000000  -0.0005660   0.0005660
    3   0.0009761  -0.0032321   0.0007151   0.0003283   0.0001012   0.0001012
            7           8
    1  -0.0001961  -0.0001961
    2  -0.0001489   0.0001489
    3   0.0005052   0.0005052
 Max gradient component =       1.338E-02
 RMS gradient           =       3.333E-03
 Gradient time:  CPU 2.54 s  wall 0.32 s
 Geometry Optimization Parameters
   NAtoms,    NIC,     NZ,  NCons,   NDum,   NFix, NCnnct, MaxDiis
        8      80       8       0       0       0       0       0

 Cartesian Hessian Update
 Hessian Updated using BFGS Update


** GEOMETRY OPTIMIZATION IN DELOCALIZED INTERNAL COORDINATES **
   Searching for a Minimum

   Optimization Cycle:   7

                       Coordinates (Angstroms)
     ATOM                X               Y               Z
      1  C        -0.1809524625    0.0000000000    0.0464091189
      2  C        -0.1758896119    0.0000000000    1.3739606985
      3  H         2.2812111999    0.0000000000   -1.0663951997
      4  F         2.5832548149    0.0000000000   -0.1931022666
      5  H        -0.2625298171   -0.9256181770   -0.5201996190
      6  H        -0.2625298171    0.9256181770   -0.5201996190
      7  H        -0.1596841495    0.9215413360    1.9497634435
      8  H        -0.1596841495   -0.9215413360    1.9497634435
   Point Group: c1    Number of degrees of freedom:    18


   Energy is   -179.019298799

 Hessian Updated using BFGS Update

 11 Hessian modes will be used to form the next step
  Hessian Eigenvalues:
     0.012035    0.025508    0.036281    0.040067    0.086183    0.100578
     0.166694    0.313684    0.359885    0.379347    0.574727

 Minimum Search - Taking Simple RFO Step
 Searching for Lamda that Minimizes Along All modes
 Value Taken    Lamda =  -0.00216000
 Calculated Step too Large.  Step scaled by  0.797184
 Step Taken.  Stepsize is  0.300000

                             Maximum     Tolerance    Cnvgd?
         Gradient           0.003631      0.000300      NO
         Displacement       0.162397      0.001200      NO
         Energy change     -0.002277      0.000001      NO


 New Cartesian Coordinates Obtained by Inverse Iteration

 Displacement from previous Coordinates is:  0.159270
 ----------------------------------------------------------------
             Standard Nuclear Orientation (Angstroms)
    I     Atom           X                Y                Z
 ----------------------------------------------------------------
    1      C      -0.2206052397     0.0000000000     0.0568973599
    2      C      -0.2036785349     0.0000000000     1.3828048130
    3      H       2.3028577271     0.0000000000    -1.0791747542
    4      F       2.6385416931     0.0000000000    -0.2176424794
    5      H      -0.2611939859    -0.9213518016    -0.5202866903
    6      H      -0.2611939859     0.9213518016    -0.5202866903
    7      H      -0.1657658333     0.9208046109     1.9588442207
    8      H      -0.1657658333    -0.9208046109     1.9588442207
 ----------------------------------------------------------------
 Nuclear Repulsion Energy =    65.6635038797 hartrees
 There are       13 alpha and       13 beta electrons
 Applying Cartesian multipole field
    Component          Value
    ---------          -----
     (2,0,0)        1.00000E-11
     (0,2,0)        2.00000E-10
     (0,0,2)       -3.00000E-11
 Nucleus-field energy     =     0.0000000026 hartrees
 Requested basis set is 6-31G(d,p)
 There are 27 shells and 70 basis functions
 A cutoff of  1.0D-11 yielded    362 shell pairs
 There are      2506 function pairs
 Smallest overlap matrix eigenvalue = 6.64E-03
 Guess MOs from SCF MO coefficient file

 -----------------------------------------------------------------------
  General SCF calculation program by
  Eric Jon Sundstrom, Paul Horn, Yuezhi Mao, Dmitri Zuev, Alec White,
  David Stuck, Shaama M.S., Shane Yost, Joonho Lee, David Small,
  Daniel Levine, Susi Lehtola, Hugh Burton, Evgeny Epifanovsky
 -----------------------------------------------------------------------
 Exchange:     0.2000 Hartree-Fock + 0.0800 Slater + 0.7200 B88
 Correlation:  0.1900 VWN1RPA + 0.8100 LYP
 Using SG-1 standard quadrature grid
 using 8 threads for integral computing
 -------------------------------------------------------
 OpenMP Integral computing Module                
 Release: version 1.0, May 2013, Q-Chem Inc. Pittsburgh 
 -------------------------------------------------------
 -------------------------------------------------------
 OpenMP BLAS3 based DFT computing Module                
 Release: version 1.0, May 2013, Q-Chem Inc. Pittsburgh 
 -------------------------------------------------------
 A restricted SCF calculation will be
 performed using DIIS
 SCF converges when DIIS error is below 1.0e-08
 ---------------------------------------
  Cycle       Energy         DIIS error
 ---------------------------------------
    1    -179.0200450777      7.43e-04  
    2    -179.0205394512      1.15e-04  
    3    -179.0205437277      1.07e-04  
    4    -179.0205485994      3.10e-05  
    5    -179.0205490721      1.16e-05  
    6    -179.0205491524      3.09e-06  
    7    -179.0205491576      5.17e-07  
    8    -179.0205491578      1.04e-07  
    9    -179.0205491578      9.16e-09  Convergence criterion met
 ---------------------------------------
 SCF time:   CPU 4.03s  wall 1.00s 
 SCF   energy in the final basis set =     -179.0205491578
 Total energy in the final basis set =     -179.0205491578
 
 --------------------------------------------------------------
 
                    Orbital Energies (a.u.)
 --------------------------------------------------------------
 
 Alpha MOs
 -- Occupied --
-24.659 -10.183 -10.181  -1.164  -0.754  -0.577  -0.513  -0.462
 -0.417  -0.375  -0.372  -0.350  -0.262
 -- Virtual --
  0.015   0.077   0.127   0.139   0.161   0.244   0.334   0.472
  0.554   0.564   0.644   0.647   0.701   0.822   0.829   0.844
  0.913   0.919   1.082   1.107   1.145   1.214   1.302   1.389
  1.394   1.476   1.531   1.625   1.629   1.838   1.868   1.885
  1.901   1.979   2.042   2.053   2.157   2.212   2.374   2.441
  2.505   2.535   2.627   2.677   2.678   2.724   2.737   2.766
  3.032   3.165   3.340   3.464   3.662   3.738   3.776   4.222
  4.513
 --------------------------------------------------------------
 
          Ground-State Mulliken Net Atomic Charges

     Atom                 Charge (a.u.)
  ----------------------------------------
      1 C                    -0.207763
      2 C                    -0.187464
      3 H                     0.351702
      4 F                    -0.345610
      5 H                     0.093027
      6 H                     0.093027
      7 H                     0.101540
      8 H                     0.101540
  ----------------------------------------
  Sum of atomic charges =    -0.000000

 -----------------------------------------------------------------
                    Cartesian Multipole Moments
 -----------------------------------------------------------------
    Charge (ESU x 10^10)
                -0.0000
    Dipole Moment (Debye)
         X      -0.5892      Y       0.0000      Z      -1.4999
       Tot       1.6115
    Quadrupole Moments (Debye-Ang)
        XX     -23.4072     XY       0.0000     YY     -17.5779
        XZ      -3.3396     YZ      -0.0000     ZZ     -14.6378
    Octopole Moments (Debye-Ang^2)
       XXX     -43.8685    XXY      -0.0000    XYY     -11.4436
       YYY       0.0000    XXZ     -16.3960    XYZ       0.0000
       YYZ      -7.0765    XZZ      -5.1493    YZZ      -0.0000
       ZZZ     -23.8405
    Hexadecapole Moments (Debye-Ang^3)
      XXXX    -279.2930   XXXY      -0.0000   XXYY     -45.8095
      XYYY      -0.0000   YYYY     -29.4680   XXXZ       3.8131
      XXYZ      -0.0000   XYYZ       5.7374   YYYZ      -0.0000
      XXZZ     -47.3511   XYZZ       0.0000   YYZZ     -21.2089
      XZZZ      10.3638   YZZZ      -0.0000   ZZZZ    -106.9457
 -----------------------------------------------------------------
 Calculating analytic gradient of the SCF energy
 Gradient of SCF Energy
            1           2           3           4           5           6
    1   0.0064087  -0.0027033   0.0011033  -0.0047124  -0.0010965  -0.0010965
    2   0.0000000  -0.0000000   0.0000000  -0.0000000   0.0003000  -0.0003000
    3   0.0049102  -0.0046672  -0.0000137   0.0005745  -0.0010657  -0.0010657
            7           8
    1   0.0010483   0.0010483
    2  -0.0002704   0.0002704
    3   0.0006638   0.0006638
 Max gradient component =       6.409E-03
 RMS gradient           =       2.292E-03
 Gradient time:  CPU 2.54 s  wall 0.32 s
 Geometry Optimization Parameters
   NAtoms,    NIC,     NZ,  NCons,   NDum,   NFix, NCnnct, MaxDiis
        8      80       8       0       0       0       0       0

 Cartesian Hessian Update
 Hessian Updated using BFGS Update


** GEOMETRY OPTIMIZATION IN DELOCALIZED INTERNAL COORDINATES **
   Searching for a Minimum

   Optimization Cycle:   8

                       Coordinates (Angstroms)
     ATOM                X               Y               Z
      1  C        -0.2206052397    0.0000000000    0.0568973599
      2  C        -0.2036785349    0.0000000000    1.3828048130
      3  H         2.3028577271    0.0000000000   -1.0791747542
      4  F         2.6385416931    0.0000000000   -0.2176424794
      5  H        -0.2611939859   -0.9213518016   -0.5202866903
      6  H        -0.2611939859    0.9213518016   -0.5202866903
      7  H        -0.1657658333    0.9208046109    1.9588442207
      8  H        -0.1657658333   -0.9208046109    1.9588442207
   Point Group: c1    Number of degrees of freedom:    18


   Energy is   -179.020549158

 Hessian Updated using BFGS Update

 11 Hessian modes will be used to form the next step
  Hessian Eigenvalues:
     0.008870    0.026425    0.035919    0.042277    0.085492    0.100647
     0.166312    0.313433    0.359852    0.378972    0.573395

 Minimum Search - Taking Simple RFO Step
 Searching for Lamda that Minimizes Along All modes
 Value Taken    Lamda =  -0.00093003
 Step Taken.  Stepsize is  0.289943

                             Maximum     Tolerance    Cnvgd?
         Gradient           0.002714      0.000300      NO
         Displacement       0.177976      0.001200      NO
         Energy change     -0.001250      0.000001      NO


 New Cartesian Coordinates Obtained by Inverse Iteration

 Displacement from previous Coordinates is:  0.181332
 ----------------------------------------------------------------
             Standard Nuclear Orientation (Angstroms)
    I     Atom           X                Y                Z
 ----------------------------------------------------------------
    1      C      -0.2524300941     0.0000000000     0.0665056092
    2      C      -0.2245805073     0.0000000000     1.3932989021
    3      H       2.3288925798     0.0000000000    -1.0992699142
    4      F       2.7031962422     0.0000000000    -0.2525657559
    5      H      -0.2606364033    -0.9203239249    -0.5123722043
    6      H      -0.2606364033     0.9203239249    -0.5123722043
    7      H      -0.1853047034     0.9212547438     1.9683877837
    8      H      -0.1853047034    -0.9212547438     1.9683877837
 ----------------------------------------------------------------
 Nuclear Repulsion Energy =    64.8911605267 hartrees
 There are       13 alpha and       13 beta electrons
 Applying Cartesian multipole field
    Component          Value
    ---------          -----
     (2,0,0)        1.00000E-11
     (0,2,0)        2.00000E-10
     (0,0,2)       -3.00000E-11
 Nucleus-field energy     =     0.0000000027 hartrees
 Requested basis set is 6-31G(d,p)
 There are 27 shells and 70 basis functions
 A cutoff of  1.0D-11 yielded    360 shell pairs
 There are      2499 function pairs
 Smallest overlap matrix eigenvalue = 6.73E-03
 Guess MOs from SCF MO coefficient file

 -----------------------------------------------------------------------
  General SCF calculation program by
  Eric Jon Sundstrom, Paul Horn, Yuezhi Mao, Dmitri Zuev, Alec White,
  David Stuck, Shaama M.S., Shane Yost, Joonho Lee, David Small,
  Daniel Levine, Susi Lehtola, Hugh Burton, Evgeny Epifanovsky
 -----------------------------------------------------------------------
 Exchange:     0.2000 Hartree-Fock + 0.0800 Slater + 0.7200 B88
 Correlation:  0.1900 VWN1RPA + 0.8100 LYP
 Using SG-1 standard quadrature grid
 using 8 threads for integral computing
 -------------------------------------------------------
 OpenMP Integral computing Module                
 Release: version 1.0, May 2013, Q-Chem Inc. Pittsburgh 
 -------------------------------------------------------
 -------------------------------------------------------
 OpenMP BLAS3 based DFT computing Module                
 Release: version 1.0, May 2013, Q-Chem Inc. Pittsburgh 
 -------------------------------------------------------
 A restricted SCF calculation will be
 performed using DIIS
 SCF converges when DIIS error is below 1.0e-08
 ---------------------------------------
  Cycle       Energy         DIIS error
 ---------------------------------------
    1    -179.0207627545      7.09e-04  
    2    -179.0211871016      1.01e-04  
    3    -179.0211894948      1.05e-04  
    4    -179.0211940028      2.52e-05  
    5    -179.0211943015      1.24e-05  
    6    -179.0211943918      2.40e-06  
    7    -179.0211943950      1.81e-07  
    8    -179.0211943951      6.11e-08  
    9    -179.0211943951      1.87e-08  
   10    -179.0211943951      5.90e-10  Convergence criterion met
 ---------------------------------------
 SCF time:   CPU 4.46s  wall 1.00s 
 SCF   energy in the final basis set =     -179.0211943951
 Total energy in the final basis set =     -179.0211943951
 
 --------------------------------------------------------------
 
                    Orbital Energies (a.u.)
 --------------------------------------------------------------
 
 Alpha MOs
 -- Occupied --
-24.659 -10.184 -10.182  -1.164  -0.755  -0.578  -0.513  -0.463
 -0.418  -0.374  -0.372  -0.351  -0.264
 -- Virtual --
  0.014   0.076   0.126   0.139   0.161   0.243   0.332   0.472
  0.551   0.563   0.643   0.645   0.698   0.822   0.829   0.844
  0.913   0.918   1.083   1.102   1.155   1.208   1.285   1.387
  1.387   1.462   1.532   1.625   1.628   1.838   1.870   1.882
  1.897   1.973   2.042   2.052   2.147   2.210   2.373   2.442
  2.499   2.531   2.630   2.667   2.686   2.722   2.732   2.762
  3.033   3.164   3.338   3.463   3.657   3.731   3.776   4.209
  4.508
 --------------------------------------------------------------
 
          Ground-State Mulliken Net Atomic Charges

     Atom                 Charge (a.u.)
  ----------------------------------------
      1 C                    -0.208612
      2 C                    -0.187374
      3 H                     0.352800
      4 F                    -0.348950
      5 H                     0.093533
      6 H                     0.093533
      7 H                     0.102534
      8 H                     0.102534
  ----------------------------------------
  Sum of atomic charges =    -0.000000

 -----------------------------------------------------------------
                    Cartesian Multipole Moments
 -----------------------------------------------------------------
    Charge (ESU x 10^10)
                -0.0000
    Dipole Moment (Debye)
         X      -0.6514      Y       0.0000      Z      -1.4638
       Tot       1.6022
    Quadrupole Moments (Debye-Ang)
        XX     -23.8912     XY       0.0000     YY     -17.5682
        XZ      -3.2877     YZ      -0.0000     ZZ     -14.5520
    Octopole Moments (Debye-Ang^2)
       XXX     -45.6347    XXY      -0.0000    XYY     -11.4568
       YYY       0.0000    XXZ     -16.0791    XYZ       0.0000
       YYZ      -6.9994    XZZ      -5.0553    YZZ      -0.0000
       ZZZ     -23.7428
    Hexadecapole Moments (Debye-Ang^3)
      XXXX    -297.2338   XXXY      -0.0000   XXYY     -47.7192
      XYYY      -0.0000   YYYY     -29.4201   XXXZ       7.3402
      XXYZ      -0.0000   XYYZ       6.5063   YYYZ      -0.0000
      XXZZ     -49.2052   XYZZ       0.0000   YYZZ     -21.4309
[...]
 There are 27 shells and 70 basis functions
 A cutoff of  1.0D-11 yielded    365 shell pairs
 There are      2527 function pairs
 Smallest overlap matrix eigenvalue = 6.89E-03
 Guess MOs from SCF MO coefficient file

 -----------------------------------------------------------------------
  General SCF calculation program by
  Eric Jon Sundstrom, Paul Horn, Yuezhi Mao, Dmitri Zuev, Alec White,
  David Stuck, Shaama M.S., Shane Yost, Joonho Lee, David Small,
  Daniel Levine, Susi Lehtola, Hugh Burton, Evgeny Epifanovsky
 -----------------------------------------------------------------------
 Exchange:     0.2000 Hartree-Fock + 0.0800 Slater + 0.7200 B88
 Correlation:  0.1900 VWN1RPA + 0.8100 LYP
 Using SG-1 standard quadrature grid
 using 8 threads for integral computing
 -------------------------------------------------------
 OpenMP Integral computing Module                
 Release: version 1.0, May 2013, Q-Chem Inc. Pittsburgh 
 -------------------------------------------------------
 -------------------------------------------------------
 OpenMP BLAS3 based DFT computing Module                
 Release: version 1.0, May 2013, Q-Chem Inc. Pittsburgh 
 -------------------------------------------------------
 A restricted SCF calculation will be
 performed using DIIS
 SCF converges when DIIS error is below 1.0e-08
 ---------------------------------------
  Cycle       Energy         DIIS error
 ---------------------------------------
    1    -179.0297583695      2.79e-05  
    2    -179.0297593706      5.18e-06  
    3    -179.0297593562      7.89e-06  
    4    -179.0297593962      8.31e-07  
    5    -179.0297593966      3.24e-07  
    6    -179.0297593966      6.31e-08  
    7    -179.0297593966      2.46e-08  
    8    -179.0297593966      2.26e-09  Convergence criterion met
 ---------------------------------------
 SCF time:   CPU 3.64s  wall 0.00s 
 SCF   energy in the final basis set =     -179.0297593966
 Total energy in the final basis set =     -179.0297593966
 
 --------------------------------------------------------------
 
                    Orbital Energies (a.u.)
 --------------------------------------------------------------
 
 Alpha MOs
 -- Occupied --
-24.634 -10.213 -10.212  -1.139  -0.785  -0.602  -0.492  -0.490
 -0.442  -0.377  -0.352  -0.351  -0.299
 -- Virtual --
 -0.014   0.100   0.121   0.138   0.141   0.227   0.308   0.453
  0.536   0.546   0.600   0.666   0.752   0.809   0.821   0.822
  0.892   0.925   1.046   1.152   1.168   1.211   1.254   1.358
  1.362   1.502   1.642   1.646   1.717   1.838   1.863   1.893
  1.894   1.939   2.011   2.019   2.117   2.190   2.362   2.422
  2.477   2.563   2.593   2.649   2.658   2.732   2.741   2.785
  2.993   3.146   3.313   3.449   3.720   3.737   3.952   4.333
  4.484
 --------------------------------------------------------------
 
          Ground-State Mulliken Net Atomic Charges

     Atom                 Charge (a.u.)
  ----------------------------------------
      1 C                    -0.231431
      2 C                    -0.225872
      3 H                     0.339189
      4 F                    -0.389836
      5 H                     0.129916
      6 H                     0.129916
      7 H                     0.124059
      8 H                     0.124059
  ----------------------------------------
  Sum of atomic charges =    -0.000000

 -----------------------------------------------------------------
                    Cartesian Multipole Moments
 -----------------------------------------------------------------
    Charge (ESU x 10^10)
                -0.0000
    Dipole Moment (Debye)
         X      -2.2880      Y       0.0000      Z       1.1619
       Tot       2.5661
    Quadrupole Moments (Debye-Ang)
        XX     -28.0757     XY      -0.0000     YY     -17.2553
        XZ       2.9783     YZ      -0.0000     ZZ     -17.3306
    Octopole Moments (Debye-Ang^2)
       XXX     -61.6539    XXY       0.0000    XYY     -12.5943
       YYY       0.0000    XXZ       0.1617    XYZ       0.0000
       YYZ      -4.4485    XZZ     -13.1472    YZZ      -0.0000
       ZZZ     -12.6899
    Hexadecapole Moments (Debye-Ang^3)
      XXXX    -322.7783   XXXY       0.0000   XXYY     -46.9878
      XYYY       0.0000   YYYY     -28.4641   XXXZ      35.8432
      XXYZ      -0.0000   XYYZ       7.1559   YYYZ      -0.0000
      XXZZ     -62.1692   XYZZ       0.0000   YYZZ     -18.7991
      XZZZ      20.7762   YZZZ      -0.0000   ZZZZ     -98.7516
 -----------------------------------------------------------------
 Calculating analytic gradient of the SCF energy
 Gradient of SCF Energy
            1           2           3           4           5           6
    1   0.0000070  -0.0000077   0.0002005  -0.0003107   0.0000906   0.0000906
    2   0.0000000   0.0000000  -0.0000000   0.0000000  -0.0001445   0.0001445
    3   0.0000099   0.0000105   0.0000064  -0.0000584   0.0000548   0.0000548
            7           8
    1  -0.0000351  -0.0000351
    2   0.0001169  -0.0001169
    3  -0.0000390  -0.0000390
 Max gradient component =       3.107E-04
 RMS gradient           =       9.948E-05
 Gradient time:  CPU 2.54 s  wall 0.32 s
 Geometry Optimization Parameters
   NAtoms,    NIC,     NZ,  NCons,   NDum,   NFix, NCnnct, MaxDiis
        8      80       8       0       0       0       0       0

 Cartesian Hessian Update
 Hessian Updated using BFGS Update


** GEOMETRY OPTIMIZATION IN CARTESIAN COORDINATES **
   Searching for a Minimum

   Optimization Cycle:  46

                       Coordinates (Angstroms)
     ATOM                X               Y               Z
      1  C        -0.2580179708    0.0000000000   -0.0721254778
      2  C        -0.0584459180    0.0000000000    1.2476724737
      3  H         1.9274590230    0.0000000000    0.0022395593
      4  F         2.7058341347    0.0000000000   -0.5117921043
      5  H        -0.3469978780   -0.9241141793   -0.6367544083
      6  H        -0.3469978818    0.9241141789   -0.6367544057
      7  H         0.0201812501    0.9244029915    1.8137571801
      8  H         0.0201812481   -0.9244029906    1.8137571831
   Point Group: c1    Number of degrees of freedom:    18


   Energy is   -179.029759397


 Translations and Rotations Projected Out of Hessian

 11 Hessian modes will be used to form the next step
  Hessian Eigenvalues:
     0.004708    0.011129    0.039741    0.124231    0.156499    0.195665
     0.295693    0.501046    0.853508    1.269734    1.909478

 Minimum Search - Taking Simple RFO Step
 Searching for Lamda that Minimizes Along All modes
 Value Taken    Lamda =   0.00000000
 Step Taken.  Stepsize is  0.006767

                             Maximum     Tolerance    Cnvgd?
         Gradient           0.000311      0.000300      NO
         Displacement       0.002720      0.001200      NO
         Energy change     -0.000001      0.000001     YES

 ----------------------------------------------------------------
             Standard Nuclear Orientation (Angstroms)
    I     Atom           X                Y                Z
 ----------------------------------------------------------------
    1      C      -0.2591705787     0.0000000000    -0.0722713268
    2      C      -0.0576981697     0.0000000000     1.2471641941
    3      H       1.9279329422     0.0000000000     0.0031089459
    4      F       2.7066963816     0.0000000000    -0.5103529656
    5      H      -0.3483646580    -0.9242177513    -0.6367293192
    6      H      -0.3483646619     0.9242177510    -0.6367293167
    7      H       0.0210823768     0.9245125402     1.8129048926
    8      H       0.0210823749    -0.9245125393     1.8129048957
 ----------------------------------------------------------------
 Nuclear Repulsion Energy =    65.8381627220 hartrees
 There are       13 alpha and       13 beta electrons
 Applying Cartesian multipole field
    Component          Value
    ---------          -----
     (2,0,0)        1.00000E-11
     (0,2,0)        2.00000E-10
     (0,0,2)       -3.00000E-11
 Nucleus-field energy     =     0.0000000029 hartrees
 Requested basis set is 6-31G(d,p)
 There are 27 shells and 70 basis functions
 A cutoff of  1.0D-11 yielded    365 shell pairs
 There are      2527 function pairs
 Smallest overlap matrix eigenvalue = 6.89E-03
 Guess MOs from SCF MO coefficient file

 -----------------------------------------------------------------------
  General SCF calculation program by
  Eric Jon Sundstrom, Paul Horn, Yuezhi Mao, Dmitri Zuev, Alec White,
  David Stuck, Shaama M.S., Shane Yost, Joonho Lee, David Small,
  Daniel Levine, Susi Lehtola, Hugh Burton, Evgeny Epifanovsky
 -----------------------------------------------------------------------
 Exchange:     0.2000 Hartree-Fock + 0.0800 Slater + 0.7200 B88
 Correlation:  0.1900 VWN1RPA + 0.8100 LYP
 Using SG-1 standard quadrature grid
 using 8 threads for integral computing
 -------------------------------------------------------
 OpenMP Integral computing Module                
 Release: version 1.0, May 2013, Q-Chem Inc. Pittsburgh 
 -------------------------------------------------------
 -------------------------------------------------------
 OpenMP BLAS3 based DFT computing Module                
 Release: version 1.0, May 2013, Q-Chem Inc. Pittsburgh 
 -------------------------------------------------------
 A restricted SCF calculation will be
 performed using DIIS
 SCF converges when DIIS error is below 1.0e-08
 ---------------------------------------
  Cycle       Energy         DIIS error
 ---------------------------------------
    1    -179.0297589910      2.87e-05  
    2    -179.0297600767      5.11e-06  
    3    -179.0297600638      7.83e-06  
    4    -179.0297601033      6.96e-07  
    5    -179.0297601036      2.82e-07  
    6    -179.0297601037      6.28e-08  
    7    -179.0297601037      1.77e-08  
    8    -179.0297601037      3.46e-09  Convergence criterion met
 ---------------------------------------
 SCF time:   CPU 3.62s  wall 0.00s 
 SCF   energy in the final basis set =     -179.0297601037
 Total energy in the final basis set =     -179.0297601037
 
 --------------------------------------------------------------
 
                    Orbital Energies (a.u.)
 --------------------------------------------------------------
 
 Alpha MOs
 -- Occupied --
-24.634 -10.213 -10.212  -1.139  -0.785  -0.602  -0.492  -0.490
 -0.442  -0.377  -0.352  -0.351  -0.299
 -- Virtual --
 -0.014   0.100   0.121   0.138   0.141   0.227   0.308   0.453
  0.536   0.546   0.601   0.666   0.752   0.809   0.821   0.822
  0.892   0.925   1.046   1.152   1.168   1.211   1.254   1.358
  1.362   1.502   1.642   1.646   1.717   1.838   1.863   1.893
  1.894   1.939   2.011   2.018   2.117   2.191   2.361   2.423
  2.477   2.564   2.593   2.649   2.658   2.732   2.741   2.785
  2.993   3.146   3.313   3.449   3.720   3.737   3.952   4.333
  4.484
 --------------------------------------------------------------
 
          Ground-State Mulliken Net Atomic Charges

     Atom                 Charge (a.u.)
  ----------------------------------------
      1 C                    -0.231099
      2 C                    -0.226104
      3 H                     0.339184
      4 F                    -0.389853
      5 H                     0.129861
      6 H                     0.129861
      7 H                     0.124075
      8 H                     0.124075
  ----------------------------------------
  Sum of atomic charges =    -0.000000

 -----------------------------------------------------------------
                    Cartesian Multipole Moments
 -----------------------------------------------------------------
    Charge (ESU x 10^10)
                -0.0000
    Dipole Moment (Debye)
         X      -2.2893      Y       0.0000      Z       1.1600
       Tot       2.5664
    Quadrupole Moments (Debye-Ang)
        XX     -28.0808     XY      -0.0000     YY     -17.2539
        XZ       2.9763     YZ      -0.0000     ZZ     -17.3315
    Octopole Moments (Debye-Ang^2)
       XXX     -61.6857    XXY       0.0000    XYY     -12.5967
       YYY       0.0000    XXZ       0.1487    XYZ       0.0000
       YYZ      -4.4506    XZZ     -13.1408    YZZ      -0.0000
       ZZZ     -12.7078
    Hexadecapole Moments (Debye-Ang^3)
      XXXX    -323.0432   XXXY       0.0000   XXYY     -47.0151
      XYYY       0.0000   YYYY     -28.4635   XXXZ      35.7358
      XXYZ      -0.0000   XYYZ       7.1310   YYYZ       0.0000
      XXZZ     -62.1636   XYZZ       0.0000   YYZZ     -18.7826
      XZZZ      20.6953   YZZZ      -0.0000   ZZZZ     -98.6638
 -----------------------------------------------------------------
 Calculating analytic gradient of the SCF energy
 Gradient of SCF Energy
            1           2           3           4           5           6
    1  -0.0000873   0.0000907   0.0001958  -0.0002916   0.0001145   0.0001145
    2   0.0000000   0.0000000  -0.0000000   0.0000000  -0.0001705   0.0001705
    3   0.0001039   0.0000091   0.0000289  -0.0000735   0.0000686   0.0000686
            7           8
    1  -0.0000684  -0.0000684
    2   0.0001030  -0.0001030
    3  -0.0001028  -0.0001028
 Max gradient component =       2.916E-04
 RMS gradient           =       1.122E-04
 Gradient time:  CPU 2.62 s  wall 0.33 s
 Geometry Optimization Parameters
   NAtoms,    NIC,     NZ,  NCons,   NDum,   NFix, NCnnct, MaxDiis
        8      80       8       0       0       0       0       0

 Cartesian Hessian Update
 Hessian Updated using BFGS Update


** GEOMETRY OPTIMIZATION IN CARTESIAN COORDINATES **
   Searching for a Minimum

   Optimization Cycle:  47

                       Coordinates (Angstroms)
     ATOM                X               Y               Z
      1  C        -0.2591705787    0.0000000000   -0.0722713268
      2  C        -0.0576981697    0.0000000000    1.2471641941
      3  H         1.9279329422    0.0000000000    0.0031089459
      4  F         2.7066963816    0.0000000000   -0.5103529656
      5  H        -0.3483646580   -0.9242177513   -0.6367293192
      6  H        -0.3483646619    0.9242177510   -0.6367293167
      7  H         0.0210823768    0.9245125402    1.8129048926
      8  H         0.0210823749   -0.9245125393    1.8129048957
   Point Group: c1    Number of degrees of freedom:    18


   Energy is   -179.029760104


 Translations and Rotations Projected Out of Hessian

 11 Hessian modes will be used to form the next step
  Hessian Eigenvalues:
     0.003690    0.008510    0.030522    0.124267    0.135709    0.194178
     0.309211    0.452212    0.902596    1.233523    1.826271

 Minimum Search - Taking Simple RFO Step
 Searching for Lamda that Minimizes Along All modes
 Value Taken    Lamda =  -0.00000232
 Step Taken.  Stepsize is  0.017462

                             Maximum     Tolerance    Cnvgd?
         Gradient           0.000292      0.000300     YES
         Displacement       0.007630      0.001200      NO
         Energy change     -0.000001      0.000001     YES


                       Distance Matrix (Angstroms)
             C (  1)   C (  2)   H (  3)   F (  4)   H (  5)   H (  6)
   C (  2)  1.334729
   H (  3)  2.188402  2.343161
   F (  4)  2.998046  3.275781  0.932800
   H (  5)  1.086622  2.118424  2.538721  3.194299
   H (  6)  1.086622  2.118424  2.538721  3.194299  1.848436
   H (  7)  2.118290  1.086735  2.786784  3.669438  3.091117  2.477337
   H (  8)  2.118290  1.086735  2.786784  3.669438  2.477337  3.091117
             H (  7)
   H (  8)  1.849025
 
 Final energy is   -179.029760103683     


 ******************************
 **  OPTIMIZATION CONVERGED  **
 ******************************

                       Coordinates (Angstroms)
     ATOM                X               Y               Z
      1  C        -0.2591705787    0.0000000000   -0.0722713268
      2  C        -0.0576981697    0.0000000000    1.2471641941
      3  H         1.9279329422    0.0000000000    0.0031089459
      4  F         2.7066963816    0.0000000000   -0.5103529656
      5  H        -0.3483646580   -0.9242177513   -0.6367293192
      6  H        -0.3483646619    0.9242177510   -0.6367293167
      7  H         0.0210823768    0.9245125402    1.8129048926
      8  H         0.0210823749   -0.9245125393    1.8129048957

Z-matrix Print:
$molecule
0 1
C 
H  1 1.086622
H  1 1.086622 2 116.541399
C  1 1.334729 2 121.728822 3 -179.649986 0
H  4 1.086735 1 121.706306 2 0.281874 0
H  4 1.086735 1 121.706307 2 179.349978 0
H  1 2.188402 2 95.735033 3 99.347711 0
F  7 0.932800 1 144.627983 2 -58.739960 0
$end

 
 --------------------------------------------------------------
 
                    Orbital Energies (a.u.)
 --------------------------------------------------------------
 
 Alpha MOs
 -- Occupied --
-24.634 -10.213 -10.212  -1.139  -0.785  -0.602  -0.492  -0.490
 -0.442  -0.377  -0.352  -0.351  -0.299
 -- Virtual --
 -0.014   0.100   0.121   0.138   0.141   0.227   0.308   0.453
  0.536   0.546   0.601   0.666   0.752   0.809   0.821   0.822
  0.892   0.925   1.046   1.152   1.168   1.211   1.254   1.358
  1.362   1.502   1.642   1.646   1.717   1.838   1.863   1.893
  1.894   1.939   2.011   2.018   2.117   2.191   2.361   2.423
  2.477   2.564   2.593   2.649   2.658   2.732   2.741   2.785
  2.993   3.146   3.313   3.449   3.720   3.737   3.952   4.333
  4.484
 --------------------------------------------------------------
 
          Ground-State Mulliken Net Atomic Charges

     Atom                 Charge (a.u.)
  ----------------------------------------
      1 C                    -0.231099
      2 C                    -0.226104
      3 H                     0.339184
      4 F                    -0.389853
      5 H                     0.129861
      6 H                     0.129861
      7 H                     0.124075
      8 H                     0.124075
  ----------------------------------------
  Sum of atomic charges =    -0.000000

 -----------------------------------------------------------------
                    Cartesian Multipole Moments
 -----------------------------------------------------------------
    Charge (ESU x 10^10)
                -0.0000
    Dipole Moment (Debye)
         X      -2.2893      Y       0.0000      Z       1.1600
       Tot       2.5664
    Quadrupole Moments (Debye-Ang)
        XX     -28.0808     XY      -0.0000     YY     -17.2539
        XZ       2.9763     YZ      -0.0000     ZZ     -17.3315
    Octopole Moments (Debye-Ang^2)
       XXX     -61.6857    XXY       0.0000    XYY     -12.5967
       YYY       0.0000    XXZ       0.1487    XYZ       0.0000
       YYZ      -4.4506    XZZ     -13.1408    YZZ      -0.0000
       ZZZ     -12.7078
    Hexadecapole Moments (Debye-Ang^3)
      XXXX    -323.0432   XXXY       0.0000   XXYY     -47.0151
      XYYY       0.0000   YYYY     -28.4635   XXXZ      35.7358
      XXYZ      -0.0000   XYYZ       7.1310   YYYZ       0.0000
      XXZZ     -62.1636   XYZZ       0.0000   YYZZ     -18.7826
      XZZZ      20.6953   YZZZ      -0.0000   ZZZZ     -98.6638
 -----------------------------------------------------------------
Archival summary:
1\1\node1\OPT\ProcedureUnspecified\6-31G**\125\songzl\ThuApr615:55:222023ThuApr615:55:222023\0\\#,OPT,ProcedureUnspecified,6-31G**,\\0,1\C\H,1,1.08662\H,1,1.08662,2,116.541\C,1,1.33473,2,121.729,3,-179.65,0\H,4,1.08673,1,121.706,2,0.281874,0\H,4,1.08673,1,121.706,2,179.35,0\H,1,2.1884,2,95.735,3,99.3477,0\F,7,0.9328,1,144.628,2,-58.74,0\\\@

 Total job time:  43.30s(wall), 341.83s(cpu) 
 Thu Apr  6 15:55:22 2023

        *************************************************************
        *                                                           *
        *  Thank you very much for using Q-Chem.  Have a nice day.  *
        *                                                           *
        *************************************************************


