
Running Job 1 of 1 baker_set_reactant.inp
qchem baker_set_reactant.inp_28229.0 /tmp/songzl/qchem_baker_set/qchem28229/ 1
/apps/apps/qchem/qc51/exe/qcprog.exe_s baker_set_reactant.inp_28229.0 /tmp/songzl/qchem_baker_set/qchem28229/
Check license passed

                  Welcome to Q-Chem
     A Quantum Leap Into The Future Of Chemistry


 Q-Chem 5.1, Q-Chem, Inc., Pleasanton, CA (2018)

 Yihan Shao,  Zhengting Gan,  E. Epifanovsky,  A. T. B. Gilbert,  M. Wormit,  
 J. Kussmann,  A. W. Lange,  A. Behn,  Jia Deng,  Xintian Feng,  D. Ghosh,  
 M. Goldey,  P. R. Horn,  L. D. Jacobson,  I. Kaliman,  T. Kus,  A. Landau,  
 Jie Liu,  E. I. Proynov,  R. M. Richard,  R. P. Steele,  E. J. Sundstrom,  
 H. L. Woodcock III,  P. M. Zimmerman,  D. Zuev,  B. Albrecht,  E. Alguire,  
 S. A. Baeppler,  D. Barton,  Z. Benda,  Y. A. Bernard,  E. J. Berquist,  
 K. B. Bravaya,  H. Burton,  D. Casanova,  Chun-Min Chang,  Yunqing Chen,  
 A. Chien,  K. D. Closser,  M. P. Coons,  S. Coriani,  S. Dasgupta,  
 A. L. Dempwolff,  M. Diedenhofen,  Hainam Do,  R. G. Edgar,  Po-Tung Fang,  
 S. Faraji,  S. Fatehi,  Qingguo Feng,  K. D. Fenk,  J. Fosso-Tande,  
 Qinghui Ge,  A. Ghysels,  G. Gidofalvi,  J. Gomes,  J. Gonthier,  A. Gunina,  
 D. Hait,  M. W. D. Hanson-Heine,  P. H. P. Harbach,  A. W. Hauser,  
 J. E. Herr,  E. G. Hohenstein,  Z. C. Holden,  Kerwin Hui,  B. C. Huynh,  
 T.-C. Jagau,  Hyunjun Ji,  B. Kaduk,  K. Khistyaev,  Jaehoon Kim,  
 P. Klunzinger,  K. Koh,  D. Kosenkov,  L. Koulias,  T. Kowalczyk,  
 C. M. Krauter,  A. Kunitsa,  Ka Un Lao,  A. Laurent,  K. V. Lawler,  
 Joonho Lee,  D. Lefrancois,  S. Lehtola,  D. S. Levine,  Yi-Pei Li,  
 You-Sheng Lin,  Fenglai Liu,  E. Livshits,  A. Luenser,  P. Manohar,  
 E. Mansoor,  S. F. Manzer,  Shan-Ping Mao,  Yuezhi Mao,  N. Mardirossian,  
 A. V. Marenich,  T. Markovich,  L. A. Martinez-Martinez,  S. A. Maurer,  
 N. J. Mayhall,  S. C. McKenzie,  J.-M. Mewes,  A. F. Morrison,  
 J. W. Mullinax,  K. Nanda,  T. S. Nguyen-Beck,  R. Olivares-Amaya,  
 J. A. Parkhill,  T. M. Perrine,  F. Plasser,  P. Pokhilko,  S. Prager,  
 A. Prociuk,  E. Ramos,  D. R. Rehn,  F. Rob,  M. Schneider,  N. Sergueev,  
 S. M. Sharada,  S. Sharma,  D. W. Small,  T. Stauch,  T. Stein,  
 Yu-Chuan Su,  A. J. W. Thom,  A. Tkatchenko,  T. Tsuchimochi,  N. M. Tubman,  
 L. Vogt,  M. L. Vidal,  O. Vydrov,  M. A. Watson,  J. Wenzel,  
 M. de Wergifosse,  T. A. Wesolowski,  A. White,  J. Witte,  A. Yamada,  
 Jun Yang,  K. Yao,  S. Yeganeh,  S. R. Yost,  Zhi-Qiang You,  A. Zech,  
 Igor Ying Zhang,  Xing Zhang,  Yan Zhao,  Ying Zhu,  B. R. Brooks,  
 G. K. L. Chan,  C. J. Cramer,  M. S. Gordon,  W. J. Hehre,  A. Klamt,  
 M. W. Schmidt,  C. D. Sherrill,  D. G. Truhlar,  A. Aspuru-Guzik,  R. Baer,  
 A. T. Bell,  N. A. Besley,  Jeng-Da Chai,  A. E. DePrince, III,  
 R. A. DiStasio Jr.,  A. Dreuw,  B. D. Dunietz,  T. R. Furlani,  
 Chao-Ping Hsu,  Yousung Jung,  Jing Kong,  D. S. Lambrecht,  WanZhen Liang,  
 C. Ochsenfeld,  V. A. Rassolov,  L. V. Slipchenko,  J. E. Subotnik,  
 T. Van Voorhis,  J. M. Herbert,  A. I. Krylov,  P. M. W. Gill,  M. Head-Gordon

 Contributors to earlier versions of Q-Chem not listed above: 
 R. D. Adamson,  B. Austin,  J. Baker,  G. J. O. Beran,  K. Brandhorst,  
 S. T. Brown,  E. F. C. Byrd,  A. K. Chakraborty,  C.-L. Cheng,  
 Siu Hung Chien,  D. M. Chipman,  D. L. Crittenden,  H. Dachsel,  
 R. J. Doerksen,  A. D. Dutoi,  L. Fusti-Molnar,  W. A. Goddard III,  
 A. Golubeva-Zadorozhnaya,  S. R. Gwaltney,  G. Hawkins,  A. Heyden,  
 S. Hirata,  G. Kedziora,  F. J. Keil,  C. Kelley,  Jihan Kim,  R. A. King,  
 R. Z. Khaliullin,  P. P. Korambath,  W. Kurlancheek,  A. M. Lee,  M. S. Lee,  
 S. V. Levchenko,  Ching Yeh Lin,  D. Liotard,  R. C. Lochan,  I. Lotan,  
 P. E. Maslen,  N. Nair,  D. P. O'Neill,  D. Neuhauser,  E. Neuscamman,  
 C. M. Oana,  R. Olson,  B. Peters,  R. Peverati,  P. A. Pieniazek,  
 Y. M. Rhee,  J. Ritchie,  M. A. Rohrdanz,  E. Rosta,  N. J. Russ,  
 H. F. Schaefer III,  N. E. Schultz,  N. Shenvi,  A. C. Simmonett,  A. Sodt,  
 D. Stuck,  K. S. Thanthiriwatte,  V. Vanovschi,  Tao Wang,  A. Warshel,  
 C. F. Williams,  Q. Wu,  X. Xu,  W. Zhang

 Please cite Q-Chem as follows:
 Y. Shao et al., Mol. Phys. 113, 184-215 (2015)
 DOI: 10.1080/00268976.2014.952696

 Q-Chem 5.1.1 for Intel X86 EM64T Linux

 Parts of Q-Chem use Armadillo 8.300.2 (Tropical Shenanigans).
 http://arma.sourceforge.net/

 Q-Chem begins on Mon Mar 27 21:29:23 2023  

Host: 
0

     Scratch files written to /tmp/songzl/qchem_baker_set/qchem28229//
 Aug318 |scratch|qcdevops|jenkins|workspace|build_RNUM 6609   
Processing $rem in /apps/apps/qchem/qc51/config/preferences.
 MEM_TOTAL  1000 
The previous job contains 0 fragments, simply inherited here
Input Ideriv = 2
Curr. Ideriv = -1
Max.  Ideriv = 2

Checking the input file for inconsistencies... 	...done.

--------------------------------------------------------------
User input:
--------------------------------------------------------------
$molecule
READ ./zmat.inp
$end

$rem
mem_total               230000
mem_static              2048
job_type                optimization
basis                   6-31g**
method                  b3lyp
symmetry                false
sym_ignore              true
geom_opt_max_cycles     500
$end
--------------------------------------------------------------
 ----------------------------------------------------------------
             Standard Nuclear Orientation (Angstroms)
    I     Atom           X                Y                Z
 ----------------------------------------------------------------
    1      N       0.0000000000     0.0000000000     0.0000000000
    2      N       0.0000000000     0.0000000000     1.2000000000
    3      C       1.2990381057     0.0000000000    -0.7500000000
    4      C       1.2990381057     0.0000000000     1.9500000000
    5      N       2.3382685902     0.0000000000    -0.1500000000
    6      N       2.3382685902     0.0000000000     1.3500000000
    7      H       1.2990381057     0.0000000000    -1.8300000000
    8      H       1.2990381057    -0.0000000000     3.0300000000
 ----------------------------------------------------------------
 Nuclear Repulsion Energy =   211.0908088041 hartrees
 There are       21 alpha and       21 beta electrons
 Requested basis set is 6-31G(d,p)
 There are 30 shells and 100 basis functions

 Total QAlloc Memory Limit 230000 MB
 Mega-Array Size      2002 MB
 MEM_STATIC part      2048 MB
 A cutoff of  1.0D-11 yielded    444 shell pairs
 There are      5173 function pairs
 
 -------------------------------------------------------
 OpenMP Integral Computing Module                       
 Release: version 1.0, May 2013, Q-Chem Inc. Pittsburgh 
 -------------------------------------------------------
 Integral Job Info:
 Integral job number is                      11
 Integral operator is                         1
 short-range coefficients                     0
 long-range coefficients              100000000
 Omega coefficients                           0
 if combine SR and LR in K                    0
 Integral screening is                        0
 Integral computing path is                   2
 max size of driver memory is            800000
 size of driver memory is                593474
 size of scratch memory is              2361544
 max col of scratch BK array               1296
 max len of scratch array in speh3          155
 max len of scratch index in speh4           18
 max int batch size is                      520
 min int batch size is                       52
 fixed nKL is                                52
 max L of basis functions is                  2
 order of int derivative is                   0
 number of shells is                         30
 number of basis is                         100
 number of cartesian basis is               100
 number of contracted shell pairs           444
 number of primitive shell pairs           1965
 maxK2 (contraction) of shell pair           36
 max number of K2 of shell pair               1
 max number of CS2 of shell pair             56
 max number of PS2 of shell pair            336
 mem total for path MDJ                  527196
 -------------------------------------------------------
 Smallest overlap matrix eigenvalue = 1.44E-03

 Scale SEOQF with 1.000000e-01/1.000000e+00/1.000000e-01

 Standard Electronic Orientation quadrupole field applied
 Nucleus-field energy     =    -0.0000000030 hartrees
 Guess from superposition of atomic densities
 Warning:  Energy on first SCF cycle will be non-variational
 SAD guess density has 42.000000 electrons

 -----------------------------------------------------------------------
  General SCF calculation program by
  Eric Jon Sundstrom, Paul Horn, Yuezhi Mao, Dmitri Zuev, Alec White,
  David Stuck, Shaama M.S., Shane Yost, Joonho Lee, David Small,
  Daniel Levine, Susi Lehtola, Hugh Burton, Evgeny Epifanovsky
 -----------------------------------------------------------------------
 Exchange:     0.2000 Hartree-Fock + 0.0800 Slater + 0.7200 B88
 Correlation:  0.1900 VWN1RPA + 0.8100 LYP
 Using SG-1 standard quadrature grid
 using 8 threads for integral computing
 -------------------------------------------------------
 OpenMP Integral computing Module                
 Release: version 1.0, May 2013, Q-Chem Inc. Pittsburgh 
 -------------------------------------------------------
 -------------------------------------------------------
 OpenMP BLAS3 based DFT computing Module                
 Release: version 1.0, May 2013, Q-Chem Inc. Pittsburgh 
 -------------------------------------------------------
 A restricted SCF calculation will be
 performed using DIIS
 SCF converges when DIIS error is below 1.0e-08
 ---------------------------------------
  Cycle       Energy         DIIS error
 ---------------------------------------
    1    -297.6967253150      8.11e-02  
    2    -296.2260528135      6.18e-03  
    3    -296.1933435144      8.06e-03  
    4    -296.2598255390      3.01e-03  
    5    -296.2704627482      2.97e-04  
    6    -296.2705298457      1.84e-04  
    7    -296.2705669660      3.10e-05  
    8    -296.2705680976      4.11e-06  
    9    -296.2705681209      8.70e-07  
   10    -296.2705681220      9.36e-08  
   11    -296.2705681220      1.66e-08  
   12    -296.2705681220      2.25e-09  Convergence criterion met
 ---------------------------------------
 SCF time:   CPU 8.57s  wall 1.00s 
 SCF   energy in the final basis set =     -296.2705681220
 Total energy in the final basis set =     -296.2705681220
 
 --------------------------------------------------------------
 
                    Orbital Energies (a.u.)
 --------------------------------------------------------------
 
 Alpha MOs
 -- Occupied --
-14.419 -14.418 -14.392 -14.392 -10.280 -10.280  -1.106  -1.010
 -0.929  -0.725  -0.695  -0.594  -0.533  -0.529  -0.487  -0.394
 -0.393  -0.362  -0.336  -0.331  -0.227
 -- Virtual --
 -0.089  -0.047   0.056   0.084   0.105   0.124   0.180   0.282
  0.286   0.340   0.483   0.484   0.485   0.541   0.566   0.593
  0.609   0.685   0.690   0.707   0.741   0.741   0.779   0.781
  0.794   0.821   0.842   0.884   0.899   0.911   0.960   1.133
  1.135   1.197   1.223   1.308   1.325   1.338   1.399   1.475
  1.503   1.513   1.552   1.577   1.675   1.680   1.832   1.882
  1.952   1.959   2.020   2.098   2.172   2.185   2.261   2.344
  2.360   2.374   2.425   2.508   2.531   2.563   2.571   2.576
  2.631   2.728   2.831   2.874   2.947   3.099   3.269   3.369
  3.570   3.606   3.711   3.931   4.187   4.216   4.425
 --------------------------------------------------------------
 
          Ground-State Mulliken Net Atomic Charges

     Atom                 Charge (a.u.)
  ----------------------------------------
      1 N                    -0.183058
      2 N                    -0.183058
      3 C                     0.250453
      4 C                     0.250453
      5 N                    -0.227111
      6 N                    -0.227111
      7 H                     0.159717
      8 H                     0.159717
  ----------------------------------------
  Sum of atomic charges =     0.000000

 -----------------------------------------------------------------
                    Cartesian Multipole Moments
 -----------------------------------------------------------------
    Charge (ESU x 10^10)
                -0.0000
    Dipole Moment (Debye)
         X      -0.3723      Y      -0.0000      Z       0.0000
       Tot       0.3723
    Quadrupole Moments (Debye-Ang)
        XX     -44.1733     XY      -0.0000     YY     -32.0346
        XZ      -0.2234     YZ      -0.0000     ZZ     -26.0540
    Octopole Moments (Debye-Ang^2)
       XXX    -159.4345    XXY      -0.0000    XYY     -39.3830
       YYY      -0.0000    XXZ     -26.5040    XYZ      -0.0000
       YYZ     -19.2208    XZZ     -31.5204    YZZ      -0.0000
       ZZZ     -46.8972
    Hexadecapole Moments (Debye-Ang^3)
      XXXX    -632.2577   XXXY      -0.0000   XXYY     -88.1692
      XYYY      -0.0000   YYYY     -27.7151   XXXZ     -95.6607
      XXYZ      -0.0000   XYYZ     -23.6298   YYYZ      -0.0000
      XXZZ    -141.9262   XYZZ      -0.0000   YYZZ     -57.6905
      XZZZ     -56.5760   YZZZ      -0.0000   ZZZZ    -246.0332
 -----------------------------------------------------------------
 Calculating analytic gradient of the SCF energy
 Gradient of SCF Energy
            1           2           3           4           5           6
    1   0.0002428   0.0002428   0.1073011   0.1073011  -0.1176325  -0.1176325
    2   0.0000000   0.0000000   0.0000000   0.0000000  -0.0000000  -0.0000000
    3   0.0938928  -0.0938928   0.0062573  -0.0062573  -0.0721010   0.0721010
            7           8
    1   0.0100886   0.0100886
    2  -0.0000000  -0.0000000
    3   0.0036059  -0.0036059
 Max gradient component =       1.176E-01
 RMS gradient           =       5.739E-02
 Gradient time:  CPU 4.08 s  wall 0.51 s
 Geometry Optimization Parameters
   NAtoms,    NIC,     NZ,  NCons,   NDum,   NFix, NCnnct, MaxDiis
        8      44       8       0       0       0       0       0


** GEOMETRY OPTIMIZATION IN DELOCALIZED INTERNAL COORDINATES **
   Searching for a Minimum

   Optimization Cycle:   1

                       Coordinates (Angstroms)
     ATOM                X               Y               Z
      1  N         0.0000000000    0.0000000000    0.0000000000
      2  N         0.0000000000    0.0000000000    1.2000000000
      3  C         1.2990381057    0.0000000000   -0.7500000000
      4  C         1.2990381057    0.0000000000    1.9500000000
      5  N         2.3382685902    0.0000000000   -0.1500000000
      6  N         2.3382685902    0.0000000000    1.3500000000
      7  H         1.2990381057    0.0000000000   -1.8300000000
      8  H         1.2990381057    0.0000000000    3.0300000000
   Point Group: c1    Number of degrees of freedom:    18


   Energy is   -296.270568122


 Attempting to Generate Delocalized Internal Coordinates

  9 Hessian modes will be used to form the next step
  Hessian Eigenvalues:
     0.160000    0.160000    0.227568    0.318486    0.323773    0.359943
     0.359943    0.995595    1.048231

 Minimum Search - Taking Simple RFO Step
 Searching for Lamda that Minimizes Along All modes
 Value Taken    Lamda =  -0.05160496
 Calculated Step too Large.  Step scaled by  0.941524
 Step Taken.  Stepsize is  0.300000

                             Maximum     Tolerance    Cnvgd?
         Gradient           0.126881      0.000300      NO
         Displacement       0.161961      0.001200      NO
         Energy change     *********      0.000001      NO


 New Cartesian Coordinates Obtained by Inverse Iteration

 Displacement from previous Coordinates is:  0.355090
 ----------------------------------------------------------------
             Standard Nuclear Orientation (Angstroms)
    I     Atom           X                Y                Z
 ----------------------------------------------------------------
    1      N      -0.0206397358     0.0000000000    -0.0144241117
    2      N      -0.0206397358     0.0000000000     1.2144241117
    3      C       1.2965524165     0.0000000000    -0.6904866679
    4      C       1.2965524165     0.0000000000     1.8904866679
    5      N       2.4189023058     0.0000000000    -0.1284162299
    6      N       2.4189023058     0.0000000000     1.3284162299
    7      H       1.2415298151     0.0000000000    -1.7734552689
    8      H       1.2415298151     0.0000000000     2.9734552689
 ----------------------------------------------------------------
 Nuclear Repulsion Energy =   209.3123901821 hartrees
 There are       21 alpha and       21 beta electrons
 Applying Cartesian multipole field
    Component          Value
    ---------          -----
     (2,0,0)        1.00000E-11
     (0,2,0)        2.00000E-10
     (0,0,2)       -3.00000E-11
 Nucleus-field energy     =    -0.0000000026 hartrees
 Requested basis set is 6-31G(d,p)
 There are 30 shells and 100 basis functions
 A cutoff of  1.0D-11 yielded    444 shell pairs
 There are      5173 function pairs
 Smallest overlap matrix eigenvalue = 1.60E-03
 Guess MOs from SCF MO coefficient file

 -----------------------------------------------------------------------
  General SCF calculation program by
  Eric Jon Sundstrom, Paul Horn, Yuezhi Mao, Dmitri Zuev, Alec White,
  David Stuck, Shaama M.S., Shane Yost, Joonho Lee, David Small,
  Daniel Levine, Susi Lehtola, Hugh Burton, Evgeny Epifanovsky
 -----------------------------------------------------------------------
 Exchange:     0.2000 Hartree-Fock + 0.0800 Slater + 0.7200 B88
 Correlation:  0.1900 VWN1RPA + 0.8100 LYP
 Using SG-1 standard quadrature grid
 using 8 threads for integral computing
 -------------------------------------------------------
 OpenMP Integral computing Module                
 Release: version 1.0, May 2013, Q-Chem Inc. Pittsburgh 
 -------------------------------------------------------
 -------------------------------------------------------
 OpenMP BLAS3 based DFT computing Module                
 Release: version 1.0, May 2013, Q-Chem Inc. Pittsburgh 
 -------------------------------------------------------
 A restricted SCF calculation will be
 performed using DIIS
 SCF converges when DIIS error is below 1.0e-08
 ---------------------------------------
  Cycle       Energy         DIIS error
 ---------------------------------------
    1    -296.2911556791      2.17e-03  
    2    -296.3014692279      7.59e-04  
    3    -296.3007749626      1.07e-03  
    4    -296.3021285192      2.91e-04  
    5    -296.3022278841      4.44e-05  
    6    -296.3022298247      2.09e-05  
    7    -296.3022303217      4.36e-06  
    8    -296.3022303465      4.53e-07  
    9    -296.3022303469      5.58e-08  
   10    -296.3022303469      1.21e-08  
   11    -296.3022303469      2.13e-09  Convergence criterion met
 ---------------------------------------
 SCF time:   CPU 8.01s  wall 1.00s 
 SCF   energy in the final basis set =     -296.3022303469
 Total energy in the final basis set =     -296.3022303469
 
 --------------------------------------------------------------
 
                    Orbital Energies (a.u.)
 --------------------------------------------------------------
 
 Alpha MOs
 -- Occupied --
-14.426 -14.426 -14.407 -14.407 -10.289 -10.289  -1.100  -1.014
 -0.905  -0.738  -0.706  -0.590  -0.533  -0.519  -0.485  -0.394
 -0.391  -0.350  -0.344  -0.343  -0.246
 -- Virtual --
 -0.103  -0.065   0.070   0.078   0.112   0.137   0.155   0.287
  0.293   0.322   0.467   0.488   0.492   0.546   0.548   0.594
  0.615   0.666   0.678   0.689   0.691   0.741   0.759   0.773
  0.789   0.806   0.845   0.877   0.882   0.901   0.941   1.108
  1.121   1.201   1.217   1.276   1.313   1.333   1.405   1.458
  1.463   1.489   1.572   1.626   1.641   1.643   1.847   1.889
  1.938   1.954   1.984   2.134   2.155   2.173   2.266   2.322
  2.325   2.367   2.389   2.500   2.508   2.514   2.535   2.541
  2.599   2.695   2.786   2.868   2.917   3.115   3.188   3.358
  3.511   3.593   3.702   3.912   4.134   4.199   4.406
 --------------------------------------------------------------
 
          Ground-State Mulliken Net Atomic Charges

     Atom                 Charge (a.u.)
  ----------------------------------------
      1 N                    -0.177128
      2 N                    -0.177128
      3 C                     0.242888
      4 C                     0.242888
      5 N                    -0.221842
      6 N                    -0.221842
      7 H                     0.156081
      8 H                     0.156081
  ----------------------------------------
  Sum of atomic charges =     0.000000

 -----------------------------------------------------------------
                    Cartesian Multipole Moments
 -----------------------------------------------------------------
    Charge (ESU x 10^10)
                 0.0000
    Dipole Moment (Debye)
         X      -0.3926      Y       0.0000      Z       0.0000
       Tot       0.3926
    Quadrupole Moments (Debye-Ang)
        XX     -44.2584     XY       0.0000     YY     -32.3315
        XZ      -0.2355     YZ       0.0000     ZZ     -27.5209
    Octopole Moments (Debye-Ang^2)
       XXX    -161.7849    XXY       0.0000    XYY     -40.2643
       YYY       0.0000    XXZ     -26.5550    XYZ       0.0000
       YYZ     -19.3989    XZZ     -34.6005    YZZ       0.0000
       ZZZ     -49.5375
    Hexadecapole Moments (Debye-Ang^3)
      XXXX    -659.3909   XXXY       0.0000   XXYY     -92.5616
      XYYY       0.0000   YYYY     -28.2676   XXXZ     -97.0710
      XXYZ       0.0000   XYYZ     -24.1586   YYYZ      -0.0000
      XXZZ    -149.1986   XYZZ       0.0000   YYZZ     -56.3786
      XZZZ     -62.1113   YZZZ       0.0000   ZZZZ    -247.7098
 -----------------------------------------------------------------
 Calculating analytic gradient of the SCF energy
 Gradient of SCF Energy
            1           2           3           4           5           6
    1  -0.0247011  -0.0247011   0.0563945   0.0563945  -0.0335247  -0.0335247
    2  -0.0000000  -0.0000000  -0.0000000   0.0000000   0.0000000   0.0000000
    3   0.0596053  -0.0596053  -0.0004868   0.0004868  -0.0397922   0.0397922
            7           8
    1   0.0018313   0.0018313
    2   0.0000000   0.0000000
    3   0.0006820  -0.0006820
 Max gradient component =       5.961E-02
 RMS gradient           =       2.895E-02
 Gradient time:  CPU 3.97 s  wall 0.50 s
 Geometry Optimization Parameters
   NAtoms,    NIC,     NZ,  NCons,   NDum,   NFix, NCnnct, MaxDiis
        8      44       8       0       0       0       0       0

 Cartesian Hessian Update
 Hessian Updated using BFGS Update


** GEOMETRY OPTIMIZATION IN DELOCALIZED INTERNAL COORDINATES **
   Searching for a Minimum

   Optimization Cycle:   2

                       Coordinates (Angstroms)
     ATOM                X               Y               Z
      1  N        -0.0206397358    0.0000000000   -0.0144241117
      2  N        -0.0206397358    0.0000000000    1.2144241117
      3  C         1.2965524165    0.0000000000   -0.6904866679
      4  C         1.2965524165    0.0000000000    1.8904866679
      5  N         2.4189023058    0.0000000000   -0.1284162299
      6  N         2.4189023058    0.0000000000    1.3284162299
      7  H         1.2415298151    0.0000000000   -1.7734552689
      8  H         1.2415298151    0.0000000000    2.9734552689
   Point Group: c1    Number of degrees of freedom:    18


   Energy is   -296.302230347

 Hessian Updated using BFGS Update

  7 Hessian modes will be used to form the next step
  Hessian Eigenvalues:
     0.160633    0.217371    0.303329    0.339245    0.360917    0.833942
     1.047126

 Minimum Search - Taking Simple RFO Step
 Searching for Lamda that Minimizes Along All modes
 Value Taken    Lamda =  -0.01896222
 Step Taken.  Stepsize is  0.254756

                             Maximum     Tolerance    Cnvgd?
         Gradient           0.059672      0.000300      NO
         Displacement       0.158700      0.001200      NO
         Energy change     -0.031662      0.000001      NO


 New Cartesian Coordinates Obtained by Inverse Iteration

 Displacement from previous Coordinates is:  0.212026
 ----------------------------------------------------------------
             Standard Nuclear Orientation (Angstroms)
    I     Atom           X                Y                Z
 ----------------------------------------------------------------
    1      N       0.0127706440     0.0000000000    -0.0330366304
    2      N       0.0127706439     0.0000000000     1.2330366301
    3      C       1.2782157219     0.0000000000    -0.6618953556
    4      C       1.2782157219     0.0000000000     1.8618953557
    5      N       2.4421351550     0.0000000000    -0.0982088614
    6      N       2.4421351550     0.0000000000     1.2982088614
    7      H       1.2032232806     0.0000000000    -1.7459173335
    8      H       1.2032232808     0.0000000000     2.9459173337
 ----------------------------------------------------------------
 Nuclear Repulsion Energy =   210.9178507387 hartrees
 There are       21 alpha and       21 beta electrons
 Applying Cartesian multipole field
    Component          Value
    ---------          -----
     (2,0,0)        1.00000E-11
     (0,2,0)        2.00000E-10
     (0,0,2)       -3.00000E-11
 Nucleus-field energy     =    -0.0000000024 hartrees
 Requested basis set is 6-31G(d,p)
 There are 30 shells and 100 basis functions
 A cutoff of  1.0D-11 yielded    444 shell pairs
 There are      5173 function pairs
 Smallest overlap matrix eigenvalue = 1.58E-03
 Guess MOs from SCF MO coefficient file

 -----------------------------------------------------------------------
  General SCF calculation program by
  Eric Jon Sundstrom, Paul Horn, Yuezhi Mao, Dmitri Zuev, Alec White,
  David Stuck, Shaama M.S., Shane Yost, Joonho Lee, David Small,
  Daniel Levine, Susi Lehtola, Hugh Burton, Evgeny Epifanovsky
 -----------------------------------------------------------------------
 Exchange:     0.2000 Hartree-Fock + 0.0800 Slater + 0.7200 B88
 Correlation:  0.1900 VWN1RPA + 0.8100 LYP
 Using SG-1 standard quadrature grid
 using 8 threads for integral computing
 -------------------------------------------------------
 OpenMP Integral computing Module                
 Release: version 1.0, May 2013, Q-Chem Inc. Pittsburgh 
 -------------------------------------------------------
 -------------------------------------------------------
 OpenMP BLAS3 based DFT computing Module                
 Release: version 1.0, May 2013, Q-Chem Inc. Pittsburgh 
 -------------------------------------------------------
 A restricted SCF calculation will be
 performed using DIIS
 SCF converges when DIIS error is below 1.0e-08
 ---------------------------------------
  Cycle       Energy         DIIS error
 ---------------------------------------
    1    -296.3040811313      2.04e-03  
    2    -296.3155330963      8.12e-04  
    3    -296.3142886432      1.31e-03  
    4    -296.3164234963      2.13e-04  
    5    -296.3164803577      2.32e-05  
    6    -296.3164811598      1.56e-05  
    7    -296.3164814339      2.95e-06  
    8    -296.3164814458      7.38e-07  
    9    -296.3164814465      7.40e-08  
   10    -296.3164814465      1.25e-08  
   11    -296.3164814465      2.95e-09  Convergence criterion met
 ---------------------------------------
 SCF time:   CPU 8.03s  wall 1.00s 
 SCF   energy in the final basis set =     -296.3164814465
 Total energy in the final basis set =     -296.3164814465
 
 --------------------------------------------------------------
 
                    Orbital Energies (a.u.)
 --------------------------------------------------------------
 
 Alpha MOs
 -- Occupied --
-14.424 -14.424 -14.415 -14.415 -10.293 -10.293  -1.103  -1.019
 -0.897  -0.758  -0.719  -0.595  -0.541  -0.514  -0.490  -0.393
 -0.383  -0.352  -0.347  -0.343  -0.252
 -- Virtual --
 -0.113  -0.072   0.071   0.102   0.121   0.150   0.169   0.281
  0.301   0.345   0.454   0.489   0.490   0.535   0.544   0.600
  0.629   0.650   0.663   0.665   0.693   0.740   0.751   0.771
  0.786   0.800   0.844   0.877   0.878   0.898   0.929   1.098
  1.136   1.205   1.208   1.259   1.292   1.340   1.407   1.447
  1.450   1.480   1.571   1.630   1.644   1.712   1.881   1.888
  1.896   1.976   2.059   2.150   2.172   2.195   2.235   2.318
  2.319   2.345   2.378   2.473   2.487   2.511   2.533   2.550
  2.607   2.709   2.781   2.881   2.926   3.151   3.167   3.363
  3.522   3.597   3.713   3.922   4.114   4.209   4.421
 --------------------------------------------------------------
 
          Ground-State Mulliken Net Atomic Charges

     Atom                 Charge (a.u.)
  ----------------------------------------
      1 N                    -0.187530
      2 N                    -0.187530
      3 C                     0.249425
      4 C                     0.249425
      5 N                    -0.216266
      6 N                    -0.216266
      7 H                     0.154371
      8 H                     0.154371
  ----------------------------------------
  Sum of atomic charges =     0.000000

 -----------------------------------------------------------------
                    Cartesian Multipole Moments
 -----------------------------------------------------------------
    Charge (ESU x 10^10)
                -0.0000
    Dipole Moment (Debye)
         X      -0.2781      Y      -0.0000      Z      -0.0000
       Tot       0.2781
    Quadrupole Moments (Debye-Ang)
        XX     -43.9594     XY      -0.0000     YY     -32.3427
        XZ      -0.1669     YZ      -0.0000     ZZ     -28.0921
    Octopole Moments (Debye-Ang^2)
       XXX    -162.5565    XXY      -0.0000    XYY     -40.4646
       YYY      -0.0000    XXZ     -26.3756    XYZ      -0.0000
       YYZ     -19.4056    XZZ     -35.8586    YZZ      -0.0000
       ZZZ     -50.5658
    Hexadecapole Moments (Debye-Ang^3)
      XXXX    -662.9544   XXXY      -0.0000   XXYY     -92.7898
      XYYY      -0.0000   YYYY     -28.3547   XXXZ     -97.5339
      XXYZ      -0.0000   XYYZ     -24.2787   YYYZ      -0.0000
      XXZZ    -150.2573   XYZZ      -0.0000   YYZZ     -55.4215
      XZZZ     -64.4254   YZZZ      -0.0000   ZZZZ    -246.8983
 -----------------------------------------------------------------
 Calculating analytic gradient of the SCF energy
 Gradient of SCF Energy
            1           2           3           4           5           6
    1  -0.0204338  -0.0204338   0.0334422   0.0334422  -0.0085727  -0.0085727
    2  -0.0000000  -0.0000000   0.0000000   0.0000000   0.0000000  -0.0000000
    3   0.0311594  -0.0311594   0.0044926  -0.0044926  -0.0228539   0.0228539
            7           8
    1  -0.0044357  -0.0044357
    2  -0.0000000  -0.0000000
    3  -0.0001818   0.0001818
 Max gradient component =       3.344E-02
 RMS gradient           =       1.618E-02
 Gradient time:  CPU 3.97 s  wall 0.50 s
 Geometry Optimization Parameters
   NAtoms,    NIC,     NZ,  NCons,   NDum,   NFix, NCnnct, MaxDiis
        8      44       8       0       0       0       0       0

 Cartesian Hessian Update
 Hessian Updated using BFGS Update


** GEOMETRY OPTIMIZATION IN DELOCALIZED INTERNAL COORDINATES **
   Searching for a Minimum

   Optimization Cycle:   3

                       Coordinates (Angstroms)
     ATOM                X               Y               Z
      1  N         0.0127706440    0.0000000000   -0.0330366304
      2  N         0.0127706439    0.0000000000    1.2330366301
      3  C         1.2782157219    0.0000000000   -0.6618953556
      4  C         1.2782157219    0.0000000000    1.8618953557
      5  N         2.4421351550    0.0000000000   -0.0982088614
      6  N         2.4421351550    0.0000000000    1.2982088614
      7  H         1.2032232806    0.0000000000   -1.7459173335
      8  H         1.2032232808    0.0000000000    2.9459173337
   Point Group: c1    Number of degrees of freedom:    18


   Energy is   -296.316481447

 Hessian Updated using BFGS Update

  7 Hessian modes will be used to form the next step
  Hessian Eigenvalues:
     0.118066    0.174721    0.291895    0.328360    0.360814    0.803190
     1.070393

 Minimum Search - Taking Simple RFO Step
 Searching for Lamda that Minimizes Along All modes
 Value Taken    Lamda =  -0.01355083
 Calculated Step too Large.  Step scaled by  0.967348
 Step Taken.  Stepsize is  0.300000

                             Maximum     Tolerance    Cnvgd?
         Gradient           0.034466      0.000300      NO
         Displacement       0.241859      0.001200      NO
         Energy change     -0.014251      0.000001      NO


 New Cartesian Coordinates Obtained by Inverse Iteration

 Displacement from previous Coordinates is:  0.187117
 ----------------------------------------------------------------
             Standard Nuclear Orientation (Angstroms)
    I     Atom           X                Y                Z
 ----------------------------------------------------------------
    1      N       0.0525441336     0.0000000000    -0.0559679304
    2      N       0.0525441335     0.0000000000     1.2559679298
    3      C       1.2424810631     0.0000000000    -0.6517740017
    4      C       1.2424810632     0.0000000000     1.8517740020
    5      N       2.4364697597     0.0000000000    -0.0618390236
    6      N       2.4364697597     0.0000000000     1.2618390234
    7      H       1.2048498450     0.0000000000    -1.7383278806
    8      H       1.2048498453     0.0000000000     2.9383278812
 ----------------------------------------------------------------
 Nuclear Repulsion Energy =   213.5223605068 hartrees
 There are       21 alpha and       21 beta electrons
 Applying Cartesian multipole field
    Component          Value
    ---------          -----
     (2,0,0)        1.00000E-11
     (0,2,0)        2.00000E-10
     (0,0,2)       -3.00000E-11
 Nucleus-field energy     =    -0.0000000024 hartrees
 Requested basis set is 6-31G(d,p)
 There are 30 shells and 100 basis functions
 A cutoff of  1.0D-11 yielded    444 shell pairs
 There are      5173 function pairs
 Smallest overlap matrix eigenvalue = 1.48E-03
 Guess MOs from SCF MO coefficient file

 -----------------------------------------------------------------------
  General SCF calculation program by
  Eric Jon Sundstrom, Paul Horn, Yuezhi Mao, Dmitri Zuev, Alec White,
  David Stuck, Shaama M.S., Shane Yost, Joonho Lee, David Small,
  Daniel Levine, Susi Lehtola, Hugh Burton, Evgeny Epifanovsky
 -----------------------------------------------------------------------
 Exchange:     0.2000 Hartree-Fock + 0.0800 Slater + 0.7200 B88
 Correlation:  0.1900 VWN1RPA + 0.8100 LYP
 Using SG-1 standard quadrature grid
 using 8 threads for integral computing
 -------------------------------------------------------
 OpenMP Integral computing Module                
 Release: version 1.0, May 2013, Q-Chem Inc. Pittsburgh 
 -------------------------------------------------------
 -------------------------------------------------------
 OpenMP BLAS3 based DFT computing Module                
 Release: version 1.0, May 2013, Q-Chem Inc. Pittsburgh 
 -------------------------------------------------------
 A restricted SCF calculation will be
 performed using DIIS
 SCF converges when DIIS error is below 1.0e-08
 ---------------------------------------
  Cycle       Energy         DIIS error
 ---------------------------------------
    1    -296.3039953057      2.52e-03  
    2    -296.3213928246      1.08e-03  
    3    -296.3195211652      1.64e-03  
    4    -296.3229271484      2.88e-04  
    5    -296.3230326679      3.97e-05  
    6    -296.3230346048      2.56e-05  
    7    -296.3230353669      5.39e-06  
    8    -296.3230354024      8.94e-07  
    9    -296.3230354036      6.49e-08  
   10    -296.3230354036      9.25e-09  Convergence criterion met
 ---------------------------------------
 SCF time:   CPU 7.25s  wall 1.00s 
 SCF   energy in the final basis set =     -296.3230354036
 Total energy in the final basis set =     -296.3230354036
 
 --------------------------------------------------------------
 
                    Orbital Energies (a.u.)
 --------------------------------------------------------------
 
 Alpha MOs
 -- Occupied --
-14.418 -14.418 -14.416 -14.416 -10.291 -10.291  -1.111  -1.024
 -0.901  -0.771  -0.727  -0.603  -0.547  -0.514  -0.498  -0.393
 -0.377  -0.358  -0.349  -0.339  -0.250
 -- Virtual --
 -0.115  -0.071   0.080   0.116   0.123   0.161   0.194   0.284
  0.311   0.370   0.451   0.489   0.496   0.523   0.541   0.636
  0.639   0.643   0.645   0.660   0.696   0.740   0.747   0.773
  0.785   0.799   0.845   0.874   0.879   0.898   0.924   1.100
  1.157   1.205   1.213   1.257   1.278   1.338   1.407   1.449
  1.451   1.481   1.591   1.610   1.660   1.784   1.845   1.894
  1.937   1.996   2.140   2.169   2.190   2.198   2.237   2.312
  2.320   2.342   2.416   2.443   2.478   2.519   2.529   2.574
  2.632   2.741   2.803   2.909   2.953   3.155   3.201   3.371
  3.559   3.607   3.734   3.941   4.121   4.209   4.438
 --------------------------------------------------------------
 
          Ground-State Mulliken Net Atomic Charges

     Atom                 Charge (a.u.)
  ----------------------------------------
      1 N                    -0.201823
      2 N                    -0.201823
      3 C                     0.255559
      4 C                     0.255559
      5 N                    -0.206741
      6 N                    -0.206741
      7 H                     0.153005
      8 H                     0.153005
  ----------------------------------------
  Sum of atomic charges =     0.000000

 -----------------------------------------------------------------
                    Cartesian Multipole Moments
 -----------------------------------------------------------------
    Charge (ESU x 10^10)
                -0.0000
    Dipole Moment (Debye)
         X      -0.0504      Y      -0.0000      Z       0.0000
       Tot       0.0504
    Quadrupole Moments (Debye-Ang)
        XX     -43.3155     XY      -0.0000     YY     -32.1936
        XZ      -0.0302     YZ      -0.0000     ZZ     -28.1633
    Octopole Moments (Debye-Ang^2)
       XXX    -161.2410    XXY      -0.0000    XYY     -40.0230
       YYY      -0.0000    XXZ     -25.9893    XYZ      -0.0000
       YYZ     -19.3162    XZZ     -35.4577    YZZ      -0.0000
       ZZZ     -50.6939
    Hexadecapole Moments (Debye-Ang^3)
      XXXX    -652.5599   XXXY      -0.0000   XXYY     -90.6581
      XYYY      -0.0000   YYYY     -28.1443   XXXZ     -96.7446
      XXYZ      -0.0000   XYYZ     -24.0138   YYYZ      -0.0000
      XXZZ    -147.1053   XYZZ      -0.0000   YYZZ     -54.7335
      XZZZ     -63.8020   YZZZ      -0.0000   ZZZZ    -244.9796
 -----------------------------------------------------------------
 Calculating analytic gradient of the SCF energy
 Gradient of SCF Energy
            1           2           3           4           5           6
    1   0.0082220   0.0082220   0.0009018   0.0009018  -0.0045703  -0.0045703
    2   0.0000000  -0.0000000  -0.0000000   0.0000000   0.0000000  -0.0000000
    3   0.0053592  -0.0053592   0.0141503  -0.0141503   0.0014784  -0.0014784
            7           8
    1  -0.0045534  -0.0045534
    2   0.0000000  -0.0000000
    3  -0.0004051   0.0004051
 Max gradient component =       1.415E-02
 RMS gradient           =       5.333E-03
 Gradient time:  CPU 3.97 s  wall 0.50 s
 Geometry Optimization Parameters
   NAtoms,    NIC,     NZ,  NCons,   NDum,   NFix, NCnnct, MaxDiis
        8      44       8       0       0       0       0       0

 Cartesian Hessian Update
 Hessian Updated using BFGS Update


** GEOMETRY OPTIMIZATION IN DELOCALIZED INTERNAL COORDINATES **
   Searching for a Minimum

   Optimization Cycle:   4

                       Coordinates (Angstroms)
     ATOM                X               Y               Z
      1  N         0.0525441336    0.0000000000   -0.0559679304
      2  N         0.0525441335    0.0000000000    1.2559679298
      3  C         1.2424810631    0.0000000000   -0.6517740017
      4  C         1.2424810632    0.0000000000    1.8517740020
      5  N         2.4364697597    0.0000000000   -0.0618390236
      6  N         2.4364697597    0.0000000000    1.2618390234
      7  H         1.2048498450    0.0000000000   -1.7383278806
      8  H         1.2048498453    0.0000000000    2.9383278812
   Point Group: c1    Number of degrees of freedom:    18


   Energy is   -296.323035404

 Hessian Updated using BFGS Update

  7 Hessian modes will be used to form the next step
  Hessian Eigenvalues:
     0.131679    0.205741    0.287643    0.327902    0.360454    0.792086
     1.068154

 Minimum Search - Taking Simple RFO Step
 Searching for Lamda that Minimizes Along All modes
 Value Taken    Lamda =  -0.00172478
 Step Taken.  Stepsize is  0.073122

                             Maximum     Tolerance    Cnvgd?
         Gradient           0.016599      0.000300      NO
         Displacement       0.058277      0.001200      NO
         Energy change     -0.006554      0.000001      NO


 New Cartesian Coordinates Obtained by Inverse Iteration

 Displacement from previous Coordinates is:  0.103407
 ----------------------------------------------------------------
             Standard Nuclear Orientation (Angstroms)
    I     Atom           X                Y                Z
 ----------------------------------------------------------------
    1      N       0.0389194100     0.0000000000    -0.0602548691
    2      N       0.0389194095     0.0000000000     1.2602548678
    3      C       1.2378672991     0.0000000000    -0.6685264886
    4      C       1.2378672994     0.0000000000     1.8685264890
    5      N       2.4291789074     0.0000000000    -0.0644715709
    6      N       2.4291789077     0.0000000000     1.2644715707
    7      H       1.2303791848     0.0000000000    -1.7550431755
    8      H       1.2303791853     0.0000000000     2.9550431766
 ----------------------------------------------------------------
 Nuclear Repulsion Energy =   212.2460660047 hartrees
 There are       21 alpha and       21 beta electrons
 Applying Cartesian multipole field
    Component          Value
    ---------          -----
     (2,0,0)        1.00000E-11
     (0,2,0)        2.00000E-10
     (0,0,2)       -3.00000E-11
 Nucleus-field energy     =    -0.0000000025 hartrees
 Requested basis set is 6-31G(d,p)
 There are 30 shells and 100 basis functions
 A cutoff of  1.0D-11 yielded    444 shell pairs
 There are      5173 function pairs
 Smallest overlap matrix eigenvalue = 1.53E-03
 Guess MOs from SCF MO coefficient file

 -----------------------------------------------------------------------
  General SCF calculation program by
  Eric Jon Sundstrom, Paul Horn, Yuezhi Mao, Dmitri Zuev, Alec White,
  David Stuck, Shaama M.S., Shane Yost, Joonho Lee, David Small,
  Daniel Levine, Susi Lehtola, Hugh Burton, Evgeny Epifanovsky
 -----------------------------------------------------------------------
 Exchange:     0.2000 Hartree-Fock + 0.0800 Slater + 0.7200 B88
 Correlation:  0.1900 VWN1RPA + 0.8100 LYP
 Using SG-1 standard quadrature grid
 using 8 threads for integral computing
 -------------------------------------------------------
 OpenMP Integral computing Module                
 Release: version 1.0, May 2013, Q-Chem Inc. Pittsburgh 
 -------------------------------------------------------
 -------------------------------------------------------
 OpenMP BLAS3 based DFT computing Module                
 Release: version 1.0, May 2013, Q-Chem Inc. Pittsburgh 
 -------------------------------------------------------
 A restricted SCF calculation will be
 performed using DIIS
 SCF converges when DIIS error is below 1.0e-08
 ---------------------------------------
  Cycle       Energy         DIIS error
 ---------------------------------------
    1    -296.3235195140      4.19e-04  
    2    -296.3238142451      1.50e-04  
    3    -296.3237992644      1.81e-04  
    4    -296.3238358082      6.57e-05  
    5    -296.3238411852      4.79e-06  
    6    -296.3238412157      9.60e-07  
    7    -296.3238412169      2.03e-07  
    8    -296.3238412170      1.86e-07  
    9    -296.3238412170      2.08e-08  
   10    -296.3238412170      2.93e-09  Convergence criterion met
 ---------------------------------------
 SCF time:   CPU 7.24s  wall 1.00s 
 SCF   energy in the final basis set =     -296.3238412170
 Total energy in the final basis set =     -296.3238412170
 
 --------------------------------------------------------------
 
                    Orbital Energies (a.u.)
 --------------------------------------------------------------
 
 Alpha MOs
 -- Occupied --
-14.418 -14.418 -14.418 -14.417 -10.293 -10.293  -1.104  -1.018
 -0.898  -0.767  -0.725  -0.599  -0.545  -0.517  -0.493  -0.390
 -0.374  -0.360  -0.348  -0.339  -0.249
 -- Virtual --
 -0.115  -0.073   0.075   0.115   0.121   0.153   0.195   0.279
  0.303   0.363   0.446   0.490   0.494   0.518   0.541   0.624
  0.636   0.638   0.643   0.662   0.697   0.739   0.752   0.773
  0.786   0.799   0.845   0.878   0.878   0.893   0.930   1.101
  1.147   1.205   1.210   1.257   1.282   1.331   1.404   1.448
  1.448   1.482   1.594   1.606   1.657   1.777   1.834   1.883
  1.926   1.993   2.131   2.155   2.179   2.184   2.227   2.311
  2.313   2.329   2.412   2.439   2.477   2.522   2.525   2.567
  2.619   2.723   2.796   2.894   2.937   3.160   3.171   3.364
  3.547   3.600   3.723   3.932   4.121   4.205   4.427
 --------------------------------------------------------------
 
          Ground-State Mulliken Net Atomic Charges

     Atom                 Charge (a.u.)
  ----------------------------------------
      1 N                    -0.204680
      2 N                    -0.204680
      3 C                     0.255645
      4 C                     0.255645
      5 N                    -0.206730
      6 N                    -0.206730
      7 H                     0.155765
      8 H                     0.155765
  ----------------------------------------
  Sum of atomic charges =     0.000000

 -----------------------------------------------------------------
                    Cartesian Multipole Moments
 -----------------------------------------------------------------
    Charge (ESU x 10^10)
                -0.0000
    Dipole Moment (Debye)
         X      -0.0202      Y       0.0000      Z      -0.0000
       Tot       0.0202
    Quadrupole Moments (Debye-Ang)
        XX     -43.3992     XY      -0.0000     YY     -32.2902
        XZ      -0.0121     YZ       0.0000     ZZ     -27.8258
    Octopole Moments (Debye-Ang^2)
       XXX    -160.7043    XXY      -0.0000    XYY     -39.8984
       YYY       0.0000    XXZ     -26.0395    XYZ       0.0000
       YYZ     -19.3741    XZZ     -34.4556    YZZ       0.0000
       ZZZ     -50.0864
    Hexadecapole Moments (Debye-Ang^3)
      XXXX    -650.8070   XXXY      -0.0000   XXYY     -90.4834
      XYYY       0.0000   YYYY     -28.3040   XXXZ     -96.4226
      XXYZ      -0.0000   XYYZ     -23.9391   YYYZ       0.0000
      XXZZ    -146.1049   XYZZ       0.0000   YYZZ     -55.4201
      XZZZ     -62.0114   YZZZ       0.0000   ZZZZ    -245.1057
 -----------------------------------------------------------------
 Calculating analytic gradient of the SCF energy
 Gradient of SCF Energy
            1           2           3           4           5           6
    1  -0.0012382  -0.0012382   0.0031343   0.0031343  -0.0012859  -0.0012859
    2   0.0000000  -0.0000000  -0.0000000   0.0000000  -0.0000000   0.0000000
    3   0.0030149  -0.0030149  -0.0017042   0.0017042  -0.0001972   0.0001972
            7           8
    1  -0.0006102  -0.0006102
    2   0.0000000   0.0000000
    3  -0.0007121   0.0007121
 Max gradient component =       3.134E-03
 RMS gradient           =       1.470E-03
 Gradient time:  CPU 3.94 s  wall 0.49 s
 Geometry Optimization Parameters
   NAtoms,    NIC,     NZ,  NCons,   NDum,   NFix, NCnnct, MaxDiis
        8      44       8       0       0       0       0       0

 Cartesian Hessian Update
 Hessian Updated using BFGS Update


** GEOMETRY OPTIMIZATION IN DELOCALIZED INTERNAL COORDINATES **
   Searching for a Minimum

   Optimization Cycle:   5

                       Coordinates (Angstroms)
     ATOM                X               Y               Z
      1  N         0.0389194100    0.0000000000   -0.0602548691
      2  N         0.0389194095    0.0000000000    1.2602548678
      3  C         1.2378672991    0.0000000000   -0.6685264886
      4  C         1.2378672994    0.0000000000    1.8685264890
      5  N         2.4291789074    0.0000000000   -0.0644715709
      6  N         2.4291789077    0.0000000000    1.2644715707
      7  H         1.2303791848    0.0000000000   -1.7550431755
      8  H         1.2303791853    0.0000000000    2.9550431766
   Point Group: c1    Number of degrees of freedom:    18


   Energy is   -296.323841217

 Hessian Updated using BFGS Update

  7 Hessian modes will be used to form the next step
  Hessian Eigenvalues:
     0.119352    0.207170    0.327200    0.343521    0.361513    0.768588
     1.068133

 Minimum Search - Taking Simple RFO Step
 Searching for Lamda that Minimizes Along All modes
 Value Taken    Lamda =  -0.00010092
 Step Taken.  Stepsize is  0.025043

                             Maximum     Tolerance    Cnvgd?
         Gradient           0.002585      0.000300      NO
         Displacement       0.019693      0.001200      NO
         Energy change     -0.000806      0.000001      NO


 New Cartesian Coordinates Obtained by Inverse Iteration

 Displacement from previous Coordinates is:  0.022032
 ----------------------------------------------------------------
             Standard Nuclear Orientation (Angstroms)
    I     Atom           X                Y                Z
 ----------------------------------------------------------------
    1      N       0.0380549746     0.0000000000    -0.0621717682
    2      N       0.0380549734     0.0000000000     1.2621717653
    3      C       1.2340968142     0.0000000000    -0.6658632955
    4      C       1.2340968151     0.0000000000     1.8658632959
    5      N       2.4288728221     0.0000000000    -0.0624080883
    6      N       2.4288728227     0.0000000000     1.2624080877
    7      H       1.2353201901     0.0000000000    -1.7513732292
    8      H       1.2353201909     0.0000000000     2.9513732322
 ----------------------------------------------------------------
 Nuclear Repulsion Energy =   212.3636140763 hartrees
 There are       21 alpha and       21 beta electrons
 Applying Cartesian multipole field
    Component          Value
    ---------          -----
     (2,0,0)        1.00000E-11
     (0,2,0)        2.00000E-10
     (0,0,2)       -3.00000E-11
 Nucleus-field energy     =    -0.0000000025 hartrees
 Requested basis set is 6-31G(d,p)
 There are 30 shells and 100 basis functions
 A cutoff of  1.0D-11 yielded    444 shell pairs
 There are      5173 function pairs
 Smallest overlap matrix eigenvalue = 1.53E-03
 Guess MOs from SCF MO coefficient file

 -----------------------------------------------------------------------
  General SCF calculation program by
  Eric Jon Sundstrom, Paul Horn, Yuezhi Mao, Dmitri Zuev, Alec White,
  David Stuck, Shaama M.S., Shane Yost, Joonho Lee, David Small,
  Daniel Levine, Susi Lehtola, Hugh Burton, Evgeny Epifanovsky
 -----------------------------------------------------------------------
 Exchange:     0.2000 Hartree-Fock + 0.0800 Slater + 0.7200 B88
 Correlation:  0.1900 VWN1RPA + 0.8100 LYP
 Using SG-1 standard quadrature grid
 using 8 threads for integral computing
 -------------------------------------------------------
 OpenMP Integral computing Module                
 Release: version 1.0, May 2013, Q-Chem Inc. Pittsburgh 
 -------------------------------------------------------
 -------------------------------------------------------
 OpenMP BLAS3 based DFT computing Module                
 Release: version 1.0, May 2013, Q-Chem Inc. Pittsburgh 
 -------------------------------------------------------
 A restricted SCF calculation will be
 performed using DIIS
 SCF converges when DIIS error is below 1.0e-08
 ---------------------------------------
  Cycle       Energy         DIIS error
 ---------------------------------------
    1    -296.3238059377      1.74e-04  
    2    -296.3238857104      7.35e-05  
    3    -296.3238748776      1.19e-04  
    4    -296.3238930347      1.71e-05  
    5    -296.3238933890      5.13e-06  
    6    -296.3238934177      1.86e-06  
    7    -296.3238934224      2.75e-07  
    8    -296.3238934225      5.67e-08  
    9    -296.3238934225      5.72e-09  Convergence criterion met
 ---------------------------------------
 SCF time:   CPU 6.50s  wall 1.00s 
 SCF   energy in the final basis set =     -296.3238934225
 Total energy in the final basis set =     -296.3238934225
 
 --------------------------------------------------------------
 
                    Orbital Energies (a.u.)
 --------------------------------------------------------------
 
 Alpha MOs
 -- Occupied --
-14.418 -14.418 -14.418 -14.418 -10.293 -10.293  -1.105  -1.018
 -0.898  -0.768  -0.725  -0.600  -0.545  -0.517  -0.494  -0.391
 -0.374  -0.360  -0.348  -0.339  -0.250
 -- Virtual --
 -0.115  -0.073   0.075   0.115   0.122   0.154   0.194   0.279
  0.304   0.364   0.446   0.490   0.494   0.519   0.541   0.626
  0.637   0.638   0.642   0.662   0.697   0.739   0.751   0.773
  0.786   0.799   0.846   0.877   0.878   0.894   0.929   1.101
  1.149   1.205   1.211   1.257   1.282   1.331   1.404   1.448
  1.448   1.482   1.593   1.608   1.656   1.778   1.835   1.887
  1.926   1.993   2.132   2.157   2.181   2.185   2.229   2.310
  2.314   2.331   2.414   2.439   2.478   2.521   2.526   2.569
  2.621   2.724   2.796   2.895   2.940   3.164   3.172   3.367
  3.548   3.601   3.724   3.933   4.120   4.205   4.428
 --------------------------------------------------------------
 
          Ground-State Mulliken Net Atomic Charges

     Atom                 Charge (a.u.)
  ----------------------------------------
      1 N                    -0.205469
      2 N                    -0.205469
      3 C                     0.255619
      4 C                     0.255619
      5 N                    -0.205463
      6 N                    -0.205463
      7 H                     0.155313
      8 H                     0.155313
  ----------------------------------------
  Sum of atomic charges =     0.000000

 -----------------------------------------------------------------
                    Cartesian Multipole Moments
 -----------------------------------------------------------------
    Charge (ESU x 10^10)
                -0.0000
    Dipole Moment (Debye)
         X       0.0002      Y      -0.0000      Z      -0.0000
       Tot       0.0002
    Quadrupole Moments (Debye-Ang)
        XX     -43.3261     XY       0.0000     YY     -32.2803
        XZ       0.0001     YZ      -0.0000     ZZ     -27.8862
    Octopole Moments (Debye-Ang^2)
       XXX    -160.3562    XXY       0.0000    XYY     -39.8260
       YYY      -0.0000    XXZ     -25.9957    XYZ       0.0000
       YYZ     -19.3682    XZZ     -34.3879    YZZ      -0.0000
       ZZZ     -50.1952
    Hexadecapole Moments (Debye-Ang^3)
      XXXX    -649.5778   XXXY       0.0000   XXYY     -90.3208
      XYYY       0.0000   YYYY     -28.2879   XXXZ     -96.2137
      XXYZ       0.0000   XYYZ     -23.8956   YYYZ      -0.0000
      XXZZ    -145.7509   XYZZ       0.0000   YYZZ     -55.3122
      XZZZ     -61.8983   YZZZ      -0.0000   ZZZZ    -245.1727
 -----------------------------------------------------------------
 Calculating analytic gradient of the SCF energy
 Gradient of SCF Energy
            1           2           3           4           5           6
    1   0.0001291   0.0001291   0.0003670   0.0003670  -0.0006788  -0.0006788
    2  -0.0000000   0.0000000  -0.0000000  -0.0000000   0.0000000  -0.0000000
    3   0.0010373  -0.0010373  -0.0001627   0.0001627   0.0007863  -0.0007863
            7           8
    1   0.0001827   0.0001827
    2   0.0000000  -0.0000000
    3   0.0000899  -0.0000899
 Max gradient component =       1.037E-03
 RMS gradient           =       4.448E-04
 Gradient time:  CPU 3.94 s  wall 0.49 s
 Geometry Optimization Parameters
   NAtoms,    NIC,     NZ,  NCons,   NDum,   NFix, NCnnct, MaxDiis
        8      44       8       0       0       0       0       0

 Cartesian Hessian Update
 Hessian Updated using BFGS Update


** GEOMETRY OPTIMIZATION IN DELOCALIZED INTERNAL COORDINATES **
   Searching for a Minimum

   Optimization Cycle:   6

                       Coordinates (Angstroms)
     ATOM                X               Y               Z
      1  N         0.0380549746    0.0000000000   -0.0621717682
      2  N         0.0380549734    0.0000000000    1.2621717653
      3  C         1.2340968142    0.0000000000   -0.6658632955
      4  C         1.2340968151    0.0000000000    1.8658632959
      5  N         2.4288728221    0.0000000000   -0.0624080883
      6  N         2.4288728227    0.0000000000    1.2624080877
      7  H         1.2353201901    0.0000000000   -1.7513732292
      8  H         1.2353201909    0.0000000000    2.9513732322
   Point Group: c1    Number of degrees of freedom:    18


   Energy is   -296.323893423

 Hessian Updated using BFGS Update

  7 Hessian modes will be used to form the next step
  Hessian Eigenvalues:
     0.125144    0.207412    0.296022    0.340157    0.362701    0.786402
     1.071882

 Minimum Search - Taking Simple RFO Step
 Searching for Lamda that Minimizes Along All modes
 Value Taken    Lamda =  -0.00000597
 Step Taken.  Stepsize is  0.003921

                             Maximum     Tolerance    Cnvgd?
         Gradient           0.001037      0.000300      NO
         Displacement       0.002634      0.001200      NO
         Energy change     -0.000052      0.000001      NO


 New Cartesian Coordinates Obtained by Inverse Iteration

 Displacement from previous Coordinates is:  0.003654
 ----------------------------------------------------------------
             Standard Nuclear Orientation (Angstroms)
    I     Atom           X                Y                Z
 ----------------------------------------------------------------
    1      N       0.0382773599     0.0000000000    -0.0625623577
    2      N       0.0382773593     0.0000000000     1.2625623555
    3      C       1.2339383957     0.0000000000    -0.6657989269
    4      C       1.2339383962     0.0000000000     1.8657989271
    5      N       2.4296473870     0.0000000000    -0.0629873782
    6      N       2.4296473873     0.0000000000     1.2629873775
    7      H       1.2344816586     0.0000000000    -1.7513739010
    8      H       1.2344816592     0.0000000000     2.9513739038
 ----------------------------------------------------------------
 Nuclear Repulsion Energy =   212.3148007976 hartrees
 There are       21 alpha and       21 beta electrons
 Applying Cartesian multipole field
    Component          Value
    ---------          -----
     (2,0,0)        1.00000E-11
     (0,2,0)        2.00000E-10
     (0,0,2)       -3.00000E-11
 Nucleus-field energy     =    -0.0000000025 hartrees
 Requested basis set is 6-31G(d,p)
 There are 30 shells and 100 basis functions
 A cutoff of  1.0D-11 yielded    444 shell pairs
 There are      5173 function pairs
 Smallest overlap matrix eigenvalue = 1.53E-03
 Guess MOs from SCF MO coefficient file

 -----------------------------------------------------------------------
  General SCF calculation program by
  Eric Jon Sundstrom, Paul Horn, Yuezhi Mao, Dmitri Zuev, Alec White,
  David Stuck, Shaama M.S., Shane Yost, Joonho Lee, David Small,
  Daniel Levine, Susi Lehtola, Hugh Burton, Evgeny Epifanovsky
 -----------------------------------------------------------------------
 Exchange:     0.2000 Hartree-Fock + 0.0800 Slater + 0.7200 B88
 Correlation:  0.1900 VWN1RPA + 0.8100 LYP
 Using SG-1 standard quadrature grid
 using 8 threads for integral computing
 -------------------------------------------------------
 OpenMP Integral computing Module                
 Release: version 1.0, May 2013, Q-Chem Inc. Pittsburgh 
 -------------------------------------------------------
 -------------------------------------------------------
 OpenMP BLAS3 based DFT computing Module                
 Release: version 1.0, May 2013, Q-Chem Inc. Pittsburgh 
 -------------------------------------------------------
 A restricted SCF calculation will be
 performed using DIIS
 SCF converges when DIIS error is below 1.0e-08
 ---------------------------------------
  Cycle       Energy         DIIS error
 ---------------------------------------
    1    -296.3238944833      3.23e-05  
    2    -296.3238962862      1.78e-05  
    3    -296.3238959971      2.29e-05  
    4    -296.3238966426      4.05e-06  
    5    -296.3238966611      1.15e-06  
    6    -296.3238966625      2.13e-07  
    7    -296.3238966626      4.10e-08  
    8    -296.3238966626      5.73e-09  Convergence criterion met
 ---------------------------------------
 SCF time:   CPU 5.79s  wall 1.00s 
 SCF   energy in the final basis set =     -296.3238966626
 Total energy in the final basis set =     -296.3238966626
 
 --------------------------------------------------------------
 
                    Orbital Energies (a.u.)
 --------------------------------------------------------------
 
 Alpha MOs
 -- Occupied --
-14.418 -14.418 -14.418 -14.418 -10.293 -10.293  -1.104  -1.018
 -0.898  -0.768  -0.725  -0.600  -0.545  -0.517  -0.494  -0.391
 -0.374  -0.360  -0.348  -0.339  -0.250
 -- Virtual --
 -0.116  -0.072   0.075   0.115   0.122   0.153   0.194   0.278
  0.304   0.363   0.446   0.490   0.494   0.519   0.541   0.626
  0.637   0.638   0.642   0.662   0.697   0.739   0.751   0.773
  0.786   0.799   0.846   0.878   0.878   0.894   0.928   1.100
  1.149   1.205   1.211   1.257   1.282   1.331   1.404   1.448
  1.448   1.482   1.592   1.609   1.656   1.777   1.835   1.887
  1.926   1.993   2.131   2.157   2.180   2.184   2.228   2.309
  2.313   2.331   2.414   2.439   2.477   2.520   2.527   2.568
  2.620   2.724   2.795   2.895   2.940   3.164   3.172   3.367
  3.547   3.601   3.723   3.933   4.120   4.205   4.427
 --------------------------------------------------------------
 
          Ground-State Mulliken Net Atomic Charges

     Atom                 Charge (a.u.)
  ----------------------------------------
      1 N                    -0.205437
      2 N                    -0.205437
      3 C                     0.255680
      4 C                     0.255680
      5 N                    -0.205528
      6 N                    -0.205528
      7 H                     0.155286
      8 H                     0.155286
  ----------------------------------------
  Sum of atomic charges =     0.000000

 -----------------------------------------------------------------
                    Cartesian Multipole Moments
 -----------------------------------------------------------------
    Charge (ESU x 10^10)
                -0.0000
    Dipole Moment (Debye)
         X      -0.0008      Y       0.0000      Z       0.0000
       Tot       0.0008
    Quadrupole Moments (Debye-Ang)
        XX     -43.3288     XY      -0.0000     YY     -32.2841
        XZ      -0.0005     YZ       0.0000     ZZ     -27.8921
    Octopole Moments (Debye-Ang^2)
       XXX    -160.4001    XXY      -0.0000    XYY     -39.8403
       YYY      -0.0000    XXZ     -25.9973    XYZ      -0.0000
       YYZ     -19.3705    XZZ     -34.4156    YZZ       0.0000
       ZZZ     -50.2058
    Hexadecapole Moments (Debye-Ang^3)
      XXXX    -649.8751   XXXY      -0.0000   XXYY     -90.3693
      XYYY      -0.0000   YYYY     -28.2935   XXXZ     -96.2400
      XXYZ      -0.0000   XYYZ     -23.9042   YYYZ       0.0000
      XXZZ    -145.8460   XYZZ      -0.0000   YYZZ     -55.3287
      XZZZ     -61.9477   YZZZ       0.0000   ZZZZ    -245.2964
 -----------------------------------------------------------------
 Calculating analytic gradient of the SCF energy
 Gradient of SCF Energy
            1           2           3           4           5           6
    1   0.0003331   0.0003331  -0.0001617  -0.0001617  -0.0002639  -0.0002639
    2   0.0000000   0.0000000  -0.0000000   0.0000000  -0.0000000  -0.0000000
    3   0.0003057  -0.0003057   0.0000171  -0.0000171  -0.0002842   0.0002842
            7           8
    1   0.0000925   0.0000925
    2  -0.0000000   0.0000000
    3   0.0000683  -0.0000683
 Max gradient component =       3.331E-04
 RMS gradient           =       1.813E-04
 Gradient time:  CPU 3.93 s  wall 0.49 s
 Geometry Optimization Parameters
   NAtoms,    NIC,     NZ,  NCons,   NDum,   NFix, NCnnct, MaxDiis
        8      44       8       0       0       0       0       0

 Cartesian Hessian Update
 Hessian Updated using BFGS Update


** GEOMETRY OPTIMIZATION IN DELOCALIZED INTERNAL COORDINATES **
   Searching for a Minimum

   Optimization Cycle:   7

                       Coordinates (Angstroms)
     ATOM                X               Y               Z
      1  N         0.0382773599    0.0000000000   -0.0625623577
      2  N         0.0382773593    0.0000000000    1.2625623555
      3  C         1.2339383957    0.0000000000   -0.6657989269
      4  C         1.2339383962    0.0000000000    1.8657989271
      5  N         2.4296473870    0.0000000000   -0.0629873782
      6  N         2.4296473873    0.0000000000    1.2629873775
      7  H         1.2344816586    0.0000000000   -1.7513739010
      8  H         1.2344816592    0.0000000000    2.9513739038
   Point Group: c1    Number of degrees of freedom:    18


   Energy is   -296.323896663

 Hessian Updated using BFGS Update

  7 Hessian modes will be used to form the next step
  Hessian Eigenvalues:
     0.126054    0.204913    0.244144    0.361250    0.484377    0.625471
     1.058234

 Minimum Search - Taking Simple RFO Step
 Searching for Lamda that Minimizes Along All modes
 Value Taken    Lamda =  -0.00000130
 Step Taken.  Stepsize is  0.001929

                             Maximum     Tolerance    Cnvgd?
         Gradient           0.000652      0.000300      NO
         Displacement       0.001367      0.001200      NO
         Energy change     -0.000003      0.000001      NO


 New Cartesian Coordinates Obtained by Inverse Iteration

 Displacement from previous Coordinates is:  0.001785
 ----------------------------------------------------------------
             Standard Nuclear Orientation (Angstroms)
    I     Atom           X                Y                Z
 ----------------------------------------------------------------
    1      N       0.0379918201     0.0000000000    -0.0627697710
    2      N       0.0379918221     0.0000000000     1.2627697674
    3      C       1.2340504882     0.0000000000    -0.6656322792
    4      C       1.2340504890     0.0000000000     1.8656322808
    5      N       2.4300856769     0.0000000000    -0.0628632564
    6      N       2.4300856765     0.0000000000     1.2628632550
    7      H       1.2342168150     0.0000000000    -1.7513140069
    8      H       1.2342168153     0.0000000000     2.9513140103
 ----------------------------------------------------------------
 Nuclear Repulsion Energy =   212.2882054771 hartrees
 There are       21 alpha and       21 beta electrons
 Applying Cartesian multipole field
    Component          Value
    ---------          -----
     (2,0,0)        1.00000E-11
     (0,2,0)        2.00000E-10
     (0,0,2)       -3.00000E-11
 Nucleus-field energy     =    -0.0000000025 hartrees
 Requested basis set is 6-31G(d,p)
 There are 30 shells and 100 basis functions
 A cutoff of  1.0D-11 yielded    444 shell pairs
 There are      5173 function pairs
 Smallest overlap matrix eigenvalue = 1.53E-03
 Guess MOs from SCF MO coefficient file

 -----------------------------------------------------------------------
  General SCF calculation program by
  Eric Jon Sundstrom, Paul Horn, Yuezhi Mao, Dmitri Zuev, Alec White,
  David Stuck, Shaama M.S., Shane Yost, Joonho Lee, David Small,
  Daniel Levine, Susi Lehtola, Hugh Burton, Evgeny Epifanovsky
 -----------------------------------------------------------------------
 Exchange:     0.2000 Hartree-Fock + 0.0800 Slater + 0.7200 B88
 Correlation:  0.1900 VWN1RPA + 0.8100 LYP
 Using SG-1 standard quadrature grid
 using 8 threads for integral computing
 -------------------------------------------------------
 OpenMP Integral computing Module                
 Release: version 1.0, May 2013, Q-Chem Inc. Pittsburgh 
 -------------------------------------------------------
 -------------------------------------------------------
 OpenMP BLAS3 based DFT computing Module                
 Release: version 1.0, May 2013, Q-Chem Inc. Pittsburgh 
 -------------------------------------------------------
 A restricted SCF calculation will be
 performed using DIIS
 SCF converges when DIIS error is below 1.0e-08
 ---------------------------------------
  Cycle       Energy         DIIS error
 ---------------------------------------
    1    -296.3238970140      1.33e-05  
    2    -296.3238973572      4.75e-06  
    3    -296.3238973343      6.39e-06  
    4    -296.3238973811      1.82e-06  
    5    -296.3238973855      2.39e-07  
    6    -296.3238973856      1.30e-07  
    7    -296.3238973856      3.14e-08  
    8    -296.3238973856      5.55e-09  Convergence criterion met
 ---------------------------------------
 SCF time:   CPU 5.79s  wall 1.00s 
 SCF   energy in the final basis set =     -296.3238973856
 Total energy in the final basis set =     -296.3238973856
 
 --------------------------------------------------------------
 
                    Orbital Energies (a.u.)
 --------------------------------------------------------------
 
 Alpha MOs
 -- Occupied --
-14.418 -14.418 -14.418 -14.418 -10.293 -10.293  -1.104  -1.018
 -0.898  -0.768  -0.725  -0.600  -0.545  -0.517  -0.494  -0.391
 -0.374  -0.360  -0.348  -0.339  -0.250
 -- Virtual --
 -0.116  -0.073   0.075   0.115   0.122   0.153   0.194   0.278
  0.304   0.363   0.446   0.490   0.494   0.519   0.542   0.625
  0.637   0.638   0.642   0.661   0.697   0.739   0.751   0.773
  0.786   0.799   0.846   0.878   0.878   0.894   0.928   1.100
  1.149   1.205   1.211   1.256   1.282   1.332   1.404   1.447
  1.448   1.482   1.591   1.609   1.656   1.777   1.835   1.887
  1.925   1.993   2.130   2.156   2.180   2.184   2.228   2.309
  2.313   2.331   2.413   2.439   2.477   2.520   2.527   2.568
  2.620   2.723   2.795   2.894   2.940   3.164   3.171   3.367
  3.547   3.601   3.723   3.933   4.119   4.205   4.427
 --------------------------------------------------------------
 
          Ground-State Mulliken Net Atomic Charges

     Atom                 Charge (a.u.)
  ----------------------------------------
      1 N                    -0.205400
      2 N                    -0.205400
      3 C                     0.255541
      4 C                     0.255541
      5 N                    -0.205417
      6 N                    -0.205417
      7 H                     0.155277
      8 H                     0.155277
  ----------------------------------------
  Sum of atomic charges =     0.000000

 -----------------------------------------------------------------
                    Cartesian Multipole Moments
 -----------------------------------------------------------------
    Charge (ESU x 10^10)
                -0.0000
    Dipole Moment (Debye)
         X      -0.0001      Y      -0.0000      Z       0.0000
       Tot       0.0001
    Quadrupole Moments (Debye-Ang)
        XX     -43.3271     XY       0.0000     YY     -32.2865
        XZ      -0.0001     YZ      -0.0000     ZZ     -27.8974
    Octopole Moments (Debye-Ang^2)
       XXX    -160.4034    XXY       0.0000    XYY     -39.8437
       YYY      -0.0000    XXZ     -25.9963    XYZ       0.0000
       YYZ     -19.3719    XZZ     -34.4255    YZZ      -0.0000
       ZZZ     -50.2153
    Hexadecapole Moments (Debye-Ang^3)
      XXXX    -650.0204   XXXY       0.0000   XXYY     -90.3935
      XYYY      -0.0000   YYYY     -28.2974   XXXZ     -96.2421
      XXYZ       0.0000   XYYZ     -23.9062   YYYZ       0.0000
      XXZZ    -145.8852   XYZZ      -0.0000   YYZZ     -55.3308
      XZZZ     -61.9659   YZZZ      -0.0000   ZZZZ    -245.3183
 -----------------------------------------------------------------
 Calculating analytic gradient of the SCF energy
 Gradient of SCF Energy
            1           2           3           4           5           6
    1   0.0000275   0.0000275  -0.0000259  -0.0000259  -0.0000282  -0.0000282
    2   0.0000000   0.0000000  -0.0000000  -0.0000000  -0.0000000  -0.0000000
    3   0.0000487  -0.0000487   0.0000791  -0.0000791  -0.0000815   0.0000815
            7           8
    1   0.0000267   0.0000267
    2  -0.0000000   0.0000000
    3  -0.0000049   0.0000049
 Max gradient component =       8.147E-05
 RMS gradient           =       3.898E-05
 Gradient time:  CPU 3.96 s  wall 0.50 s
 Geometry Optimization Parameters
   NAtoms,    NIC,     NZ,  NCons,   NDum,   NFix, NCnnct, MaxDiis
        8      44       8       0       0       0       0       0

 Cartesian Hessian Update
 Hessian Updated using BFGS Update


** GEOMETRY OPTIMIZATION IN DELOCALIZED INTERNAL COORDINATES **
   Searching for a Minimum

   Optimization Cycle:   8

                       Coordinates (Angstroms)
     ATOM                X               Y               Z
      1  N         0.0379918201    0.0000000000   -0.0627697710
      2  N         0.0379918221    0.0000000000    1.2627697674
      3  C         1.2340504882    0.0000000000   -0.6656322792
      4  C         1.2340504890    0.0000000000    1.8656322808
      5  N         2.4300856769    0.0000000000   -0.0628632564
      6  N         2.4300856765    0.0000000000    1.2628632550
      7  H         1.2342168150    0.0000000000   -1.7513140069
      8  H         1.2342168153    0.0000000000    2.9513140103
   Point Group: c1    Number of degrees of freedom:    18


   Energy is   -296.323897386

 Hessian Updated using BFGS Update

  7 Hessian modes will be used to form the next step
  Hessian Eigenvalues:
     0.124785    0.185331    0.269284    0.362318    0.473497    0.575706
     1.058425

 Minimum Search - Taking Simple RFO Step
 Searching for Lamda that Minimizes Along All modes
 Value Taken    Lamda =   0.00000000
 Step Taken.  Stepsize is  0.000527

                             Maximum     Tolerance    Cnvgd?
         Gradient           0.000082      0.000300     YES
         Displacement       0.000392      0.001200     YES
         Energy change     -0.000001      0.000001     YES


                       Distance Matrix (Angstroms)
             N (  1)   N (  2)   C (  3)   C (  4)   N (  5)   N (  6)
   N (  2)  1.325540
   C (  3)  1.339403  2.269205
   C (  4)  2.269205  1.339403  2.531265
   N (  5)  2.392094  2.734852  1.339340  2.269272
   N (  6)  2.734852  2.392094  2.269272  1.339340  1.325727
   H (  7)  2.069332  3.242785  1.085682  3.616946  2.069050  3.242741
   H (  8)  3.242785  2.069332  3.616946  1.085682  3.242741  2.069050
             H (  7)
   H (  8)  4.702628
 
 Final energy is   -296.323897385587     


 ******************************
 **  OPTIMIZATION CONVERGED  **
 ******************************

                       Coordinates (Angstroms)
     ATOM                X               Y               Z
      1  N         0.0379918201    0.0000000000   -0.0627697710
      2  N         0.0379918221    0.0000000000    1.2627697674
      3  C         1.2340504882    0.0000000000   -0.6656322792
      4  C         1.2340504890    0.0000000000    1.8656322808
      5  N         2.4300856769    0.0000000000   -0.0628632564
      6  N         2.4300856765    0.0000000000    1.2628632550
      7  H         1.2342168150    0.0000000000   -1.7513140069
      8  H         1.2342168153    0.0000000000    2.9513140103

Z-matrix Print:
$molecule
0 1
N 
N  1 1.325540
C  2 1.339403 1 116.749974
H  3 1.085682 2 116.758751 1 -180.000000 0
N  3 1.339340 2 126.503172 1 -0.000000 0
N  5 1.325727 3 116.746854 2 -0.000000 0
C  6 1.339340 5 116.746855 3 -0.000000 0
H  7 1.085682 6 116.738077 5 -180.000000 0
$end

 
 --------------------------------------------------------------
 
                    Orbital Energies (a.u.)
 --------------------------------------------------------------
 
 Alpha MOs
 -- Occupied --
-14.418 -14.418 -14.418 -14.418 -10.293 -10.293  -1.104  -1.018
 -0.898  -0.768  -0.725  -0.600  -0.545  -0.517  -0.494  -0.391
 -0.374  -0.360  -0.348  -0.339  -0.250
 -- Virtual --
 -0.116  -0.073   0.075   0.115   0.122   0.153   0.194   0.278
  0.304   0.363   0.446   0.490   0.494   0.519   0.542   0.625
  0.637   0.638   0.642   0.661   0.697   0.739   0.751   0.773
  0.786   0.799   0.846   0.878   0.878   0.894   0.928   1.100
  1.149   1.205   1.211   1.256   1.282   1.332   1.404   1.447
  1.448   1.482   1.591   1.609   1.656   1.777   1.835   1.887
  1.925   1.993   2.130   2.156   2.180   2.184   2.228   2.309
  2.313   2.331   2.413   2.439   2.477   2.520   2.527   2.568
  2.620   2.723   2.795   2.894   2.940   3.164   3.171   3.367
  3.547   3.601   3.723   3.933   4.119   4.205   4.427
 --------------------------------------------------------------
 
          Ground-State Mulliken Net Atomic Charges

     Atom                 Charge (a.u.)
  ----------------------------------------
      1 N                    -0.205400
      2 N                    -0.205400
      3 C                     0.255541
      4 C                     0.255541
      5 N                    -0.205417
      6 N                    -0.205417
      7 H                     0.155277
      8 H                     0.155277
  ----------------------------------------
  Sum of atomic charges =     0.000000

 -----------------------------------------------------------------
                    Cartesian Multipole Moments
 -----------------------------------------------------------------
    Charge (ESU x 10^10)
                -0.0000
    Dipole Moment (Debye)
         X      -0.0001      Y      -0.0000      Z       0.0000
       Tot       0.0001
    Quadrupole Moments (Debye-Ang)
        XX     -43.3271     XY       0.0000     YY     -32.2865
        XZ      -0.0001     YZ      -0.0000     ZZ     -27.8974
    Octopole Moments (Debye-Ang^2)
       XXX    -160.4034    XXY       0.0000    XYY     -39.8437
       YYY      -0.0000    XXZ     -25.9963    XYZ       0.0000
       YYZ     -19.3719    XZZ     -34.4255    YZZ      -0.0000
       ZZZ     -50.2153
    Hexadecapole Moments (Debye-Ang^3)
      XXXX    -650.0204   XXXY       0.0000   XXYY     -90.3935
      XYYY      -0.0000   YYYY     -28.2974   XXXZ     -96.2421
      XXYZ       0.0000   XYYZ     -23.9062   YYYZ       0.0000
      XXZZ    -145.8852   XYZZ      -0.0000   YYZZ     -55.3308
      XZZZ     -61.9659   YZZZ      -0.0000   ZZZZ    -245.3183
 -----------------------------------------------------------------
Archival summary:
1\1\node4\OPT\ProcedureUnspecified\6-31G**\422\songzl\MonMar2721:29:352023MonMar2721:29:352023\0\\#,OPT,ProcedureUnspecified,6-31G**,\\0,1\N\N,1,1.32554\C,2,1.3394,1,116.75\H,3,1.08568,2,116.759,1,-180,0\N,3,1.33934,2,126.503,1,-0,0\N,5,1.32573,3,116.747,2,-0,0\C,6,1.33934,5,116.747,3,-0,0\H,7,1.08568,6,116.738,5,-180,0\\\@

 Total job time:  11.83s(wall), 93.71s(cpu) 
 Mon Mar 27 21:29:35 2023

        *************************************************************
        *                                                           *
        *  Thank you very much for using Q-Chem.  Have a nice day.  *
        *                                                           *
        *************************************************************


