
Running Job 1 of 1 qchem_batch_opt.inp
qchem qchem_batch_opt.inp_31868.0 /tmp/songzl/qchem_baker_set/qchem31868/ 1
/apps/apps/qchem/qc51/exe/qcprog.exe_s qchem_batch_opt.inp_31868.0 /tmp/songzl/qchem_baker_set/qchem31868/
Check license passed

                  Welcome to Q-Chem
     A Quantum Leap Into The Future Of Chemistry


 Q-Chem 5.1, Q-Chem, Inc., Pleasanton, CA (2018)

 Yihan Shao,  Zhengting Gan,  E. Epifanovsky,  A. T. B. Gilbert,  M. Wormit,  
 J. Kussmann,  A. W. Lange,  A. Behn,  Jia Deng,  Xintian Feng,  D. Ghosh,  
 M. Goldey,  P. R. Horn,  L. D. Jacobson,  I. Kaliman,  T. Kus,  A. Landau,  
 Jie Liu,  E. I. Proynov,  R. M. Richard,  R. P. Steele,  E. J. Sundstrom,  
 H. L. Woodcock III,  P. M. Zimmerman,  D. Zuev,  B. Albrecht,  E. Alguire,  
 S. A. Baeppler,  D. Barton,  Z. Benda,  Y. A. Bernard,  E. J. Berquist,  
 K. B. Bravaya,  H. Burton,  D. Casanova,  Chun-Min Chang,  Yunqing Chen,  
 A. Chien,  K. D. Closser,  M. P. Coons,  S. Coriani,  S. Dasgupta,  
 A. L. Dempwolff,  M. Diedenhofen,  Hainam Do,  R. G. Edgar,  Po-Tung Fang,  
 S. Faraji,  S. Fatehi,  Qingguo Feng,  K. D. Fenk,  J. Fosso-Tande,  
 Qinghui Ge,  A. Ghysels,  G. Gidofalvi,  J. Gomes,  J. Gonthier,  A. Gunina,  
 D. Hait,  M. W. D. Hanson-Heine,  P. H. P. Harbach,  A. W. Hauser,  
 J. E. Herr,  E. G. Hohenstein,  Z. C. Holden,  Kerwin Hui,  B. C. Huynh,  
 T.-C. Jagau,  Hyunjun Ji,  B. Kaduk,  K. Khistyaev,  Jaehoon Kim,  
 P. Klunzinger,  K. Koh,  D. Kosenkov,  L. Koulias,  T. Kowalczyk,  
 C. M. Krauter,  A. Kunitsa,  Ka Un Lao,  A. Laurent,  K. V. Lawler,  
 Joonho Lee,  D. Lefrancois,  S. Lehtola,  D. S. Levine,  Yi-Pei Li,  
 You-Sheng Lin,  Fenglai Liu,  E. Livshits,  A. Luenser,  P. Manohar,  
 E. Mansoor,  S. F. Manzer,  Shan-Ping Mao,  Yuezhi Mao,  N. Mardirossian,  
 A. V. Marenich,  T. Markovich,  L. A. Martinez-Martinez,  S. A. Maurer,  
 N. J. Mayhall,  S. C. McKenzie,  J.-M. Mewes,  A. F. Morrison,  
 J. W. Mullinax,  K. Nanda,  T. S. Nguyen-Beck,  R. Olivares-Amaya,  
 J. A. Parkhill,  T. M. Perrine,  F. Plasser,  P. Pokhilko,  S. Prager,  
 A. Prociuk,  E. Ramos,  D. R. Rehn,  F. Rob,  M. Schneider,  N. Sergueev,  
 S. M. Sharada,  S. Sharma,  D. W. Small,  T. Stauch,  T. Stein,  
 Yu-Chuan Su,  A. J. W. Thom,  A. Tkatchenko,  T. Tsuchimochi,  N. M. Tubman,  
 L. Vogt,  M. L. Vidal,  O. Vydrov,  M. A. Watson,  J. Wenzel,  
 M. de Wergifosse,  T. A. Wesolowski,  A. White,  J. Witte,  A. Yamada,  
 Jun Yang,  K. Yao,  S. Yeganeh,  S. R. Yost,  Zhi-Qiang You,  A. Zech,  
 Igor Ying Zhang,  Xing Zhang,  Yan Zhao,  Ying Zhu,  B. R. Brooks,  
 G. K. L. Chan,  C. J. Cramer,  M. S. Gordon,  W. J. Hehre,  A. Klamt,  
 M. W. Schmidt,  C. D. Sherrill,  D. G. Truhlar,  A. Aspuru-Guzik,  R. Baer,  
 A. T. Bell,  N. A. Besley,  Jeng-Da Chai,  A. E. DePrince, III,  
 R. A. DiStasio Jr.,  A. Dreuw,  B. D. Dunietz,  T. R. Furlani,  
 Chao-Ping Hsu,  Yousung Jung,  Jing Kong,  D. S. Lambrecht,  WanZhen Liang,  
 C. Ochsenfeld,  V. A. Rassolov,  L. V. Slipchenko,  J. E. Subotnik,  
 T. Van Voorhis,  J. M. Herbert,  A. I. Krylov,  P. M. W. Gill,  M. Head-Gordon

 Contributors to earlier versions of Q-Chem not listed above: 
 R. D. Adamson,  B. Austin,  J. Baker,  G. J. O. Beran,  K. Brandhorst,  
 S. T. Brown,  E. F. C. Byrd,  A. K. Chakraborty,  C.-L. Cheng,  
 Siu Hung Chien,  D. M. Chipman,  D. L. Crittenden,  H. Dachsel,  
 R. J. Doerksen,  A. D. Dutoi,  L. Fusti-Molnar,  W. A. Goddard III,  
 A. Golubeva-Zadorozhnaya,  S. R. Gwaltney,  G. Hawkins,  A. Heyden,  
 S. Hirata,  G. Kedziora,  F. J. Keil,  C. Kelley,  Jihan Kim,  R. A. King,  
 R. Z. Khaliullin,  P. P. Korambath,  W. Kurlancheek,  A. M. Lee,  M. S. Lee,  
 S. V. Levchenko,  Ching Yeh Lin,  D. Liotard,  R. C. Lochan,  I. Lotan,  
 P. E. Maslen,  N. Nair,  D. P. O'Neill,  D. Neuhauser,  E. Neuscamman,  
 C. M. Oana,  R. Olson,  B. Peters,  R. Peverati,  P. A. Pieniazek,  
 Y. M. Rhee,  J. Ritchie,  M. A. Rohrdanz,  E. Rosta,  N. J. Russ,  
 H. F. Schaefer III,  N. E. Schultz,  N. Shenvi,  A. C. Simmonett,  A. Sodt,  
 D. Stuck,  K. S. Thanthiriwatte,  V. Vanovschi,  Tao Wang,  A. Warshel,  
 C. F. Williams,  Q. Wu,  X. Xu,  W. Zhang

 Please cite Q-Chem as follows:
 Y. Shao et al., Mol. Phys. 113, 184-215 (2015)
 DOI: 10.1080/00268976.2014.952696

 Q-Chem 5.1.1 for Intel X86 EM64T Linux

 Parts of Q-Chem use Armadillo 8.300.2 (Tropical Shenanigans).
 http://arma.sourceforge.net/

 Q-Chem begins on Thu Apr  6 16:02:09 2023  

Host: 
0

     Scratch files written to /tmp/songzl/qchem_baker_set/qchem31868//
 Aug318 |scratch|qcdevops|jenkins|workspace|build_RNUM 6609   
Processing $rem in /apps/apps/qchem/qc51/config/preferences.
 MEM_TOTAL  1000 
The previous job contains 0 fragments, simply inherited here
Input Ideriv = 2
Curr. Ideriv = -1
Max.  Ideriv = 2

Checking the input file for inconsistencies... 	...done.

--------------------------------------------------------------
User input:
--------------------------------------------------------------
$molecule
READ ./zmat.inp
$end

$rem
mem_total               230000
mem_static              2048
job_type                optimization
basis                   6-31g**
method                  b3lyp
symmetry                false
sym_ignore              true
geom_opt_max_cycles     500
$end
--------------------------------------------------------------
 ----------------------------------------------------------------
             Standard Nuclear Orientation (Angstroms)
    I     Atom           X                Y                Z
 ----------------------------------------------------------------
    1      C       0.0000000000     0.0000000000     0.0000000000
    2      C       0.0000000000     0.0000000000     1.4300000000
    3      O       1.1258330249     0.0000000000     2.0800000000
    4      H      -0.4328730755    -0.9282993062    -0.3728019562
    5      H      -0.5121324783     0.8870394727    -0.3728019562
    6      H      -0.9403756081     0.0822722052     1.9750000000
    7      H       2.0161420144     0.0777434599     1.5679395957
 ----------------------------------------------------------------
 Nuclear Repulsion Energy =    69.7853460468 hartrees
 There are       12 alpha and       12 beta electrons
 Requested basis set is 6-31G(d,p)
 There are 24 shells and 65 basis functions

 Total QAlloc Memory Limit 230000 MB
 Mega-Array Size      2002 MB
 MEM_STATIC part      2048 MB
 A cutoff of  1.0D-11 yielded    297 shell pairs
 There are      2231 function pairs
 
 -------------------------------------------------------
 OpenMP Integral Computing Module                       
 Release: version 1.0, May 2013, Q-Chem Inc. Pittsburgh 
 -------------------------------------------------------
 Integral Job Info:
 Integral job number is                      11
 Integral operator is                         1
 short-range coefficients                     0
 long-range coefficients              100000000
 Omega coefficients                           0
 if combine SR and LR in K                    0
 Integral screening is                        0
 Integral computing path is                   2
 max size of driver memory is            800000
 size of driver memory is                593474
 size of scratch memory is              2361544
 max col of scratch BK array               1296
 max len of scratch array in speh3          155
 max len of scratch index in speh4           18
 max int batch size is                      520
 min int batch size is                       52
 fixed nKL is                                52
 max L of basis functions is                  2
 order of int derivative is                   0
 number of shells is                         24
 number of basis is                          65
 number of cartesian basis is                65
 number of contracted shell pairs           297
 number of primitive shell pairs           1153
 maxK2 (contraction) of shell pair           36
 max number of K2 of shell pair               1
 max number of CS2 of shell pair             26
 max number of PS2 of shell pair            108
 mem total for path MDJ                  511410
 -------------------------------------------------------
 Smallest overlap matrix eigenvalue = 6.01E-03

 Scale SEOQF with 1.000000e-01/1.000000e+00/1.000000e-01

 Standard Electronic Orientation quadrupole field applied
 Nucleus-field energy     =    -0.0000000040 hartrees
 Guess from superposition of atomic densities
 Warning:  Energy on first SCF cycle will be non-variational
 SAD guess density has 24.000000 electrons

 -----------------------------------------------------------------------
  General SCF calculation program by
  Eric Jon Sundstrom, Paul Horn, Yuezhi Mao, Dmitri Zuev, Alec White,
  David Stuck, Shaama M.S., Shane Yost, Joonho Lee, David Small,
  Daniel Levine, Susi Lehtola, Hugh Burton, Evgeny Epifanovsky
 -----------------------------------------------------------------------
 Exchange:     0.2000 Hartree-Fock + 0.0800 Slater + 0.7200 B88
 Correlation:  0.1900 VWN1RPA + 0.8100 LYP
 Using SG-1 standard quadrature grid
 using 8 threads for integral computing
 -------------------------------------------------------
 OpenMP Integral computing Module                
 Release: version 1.0, May 2013, Q-Chem Inc. Pittsburgh 
 -------------------------------------------------------
 -------------------------------------------------------
 OpenMP BLAS3 based DFT computing Module                
 Release: version 1.0, May 2013, Q-Chem Inc. Pittsburgh 
 -------------------------------------------------------
 A restricted SCF calculation will be
 performed using DIIS
 SCF converges when DIIS error is below 1.0e-08
 ---------------------------------------
  Cycle       Energy         DIIS error
 ---------------------------------------
    1    -154.1561552974      8.42e-02  
    2    -153.5526559004      1.57e-02  
    3    -152.8786777324      3.04e-02  
    4    -153.6270923929      1.09e-02  
    5    -153.6826565637      3.98e-03  
    6    -153.6875704771      3.12e-03  
    7    -153.6926226472      5.09e-04  
    8    -153.6928044696      3.53e-04  
    9    -153.6928916303      2.04e-04  
   10    -153.6929298505      8.76e-05  
   11    -153.6929367195      2.49e-06  
   12    -153.6929367228      8.51e-07  
   13    -153.6929367234      3.12e-07  
   14    -153.6929367235      3.61e-08  
   15    -153.6929367235      1.53e-08  
   16    -153.6929367235      1.56e-09  Convergence criterion met
 ---------------------------------------
 SCF time:   CPU 6.68s  wall 1.00s 
 SCF   energy in the final basis set =     -153.6929367235
 Total energy in the final basis set =     -153.6929367235
 
 --------------------------------------------------------------
 
                    Orbital Energies (a.u.)
 --------------------------------------------------------------
 
 Alpha MOs
 -- Occupied --
-19.235 -10.306 -10.113  -1.106  -0.738  -0.640  -0.519  -0.469
 -0.444  -0.362  -0.345  -0.146
 -- Virtual --
 -0.072   0.042   0.131   0.162   0.213   0.259   0.327   0.531
  0.537   0.571   0.635   0.657   0.688   0.723   0.743   0.860
  0.865   0.893   0.929   0.955   1.053   1.221   1.332   1.393
  1.454   1.572   1.669   1.715   1.843   1.857   1.945   1.975
  2.064   2.175   2.237   2.251   2.337   2.430   2.532   2.539
  2.548   2.603   2.777   2.809   2.910   2.920   3.309   3.372
  3.430   3.476   3.903   4.194   4.501
 --------------------------------------------------------------
 
          Ground-State Mulliken Net Atomic Charges

     Atom                 Charge (a.u.)
  ----------------------------------------
      1 C                    -0.487862
      2 C                     0.209737
      3 O                    -0.370600
      4 H                     0.095306
      5 H                     0.079472
      6 H                     0.142166
      7 H                     0.331781
  ----------------------------------------
  Sum of atomic charges =     0.000000

 -----------------------------------------------------------------
                    Cartesian Multipole Moments
 -----------------------------------------------------------------
    Charge (ESU x 10^10)
                 0.0000
    Dipole Moment (Debye)
         X       0.0781      Y      -0.0115      Z       1.9590
       Tot       1.9606
    Quadrupole Moments (Debye-Ang)
        XX     -14.4867     XY       0.3900     YY     -18.0958
        XZ       1.1842     YZ       0.0517     ZZ     -18.5442
    Octopole Moments (Debye-Ang^2)
       XXX      -4.8819    XXY       0.6786    XYY      -6.4121
       YYY      -0.5637    XXZ     -11.2413    XYZ       0.4420
       YYZ     -19.6103    XZZ      -8.5260    YZZ      -0.0729
       ZZZ     -63.9728
    Hexadecapole Moments (Debye-Ang^3)
      XXXX     -46.4724   XXXY       1.8338   XXYY     -17.0796
      XYYY       0.2838   YYYY     -23.7181   XXXZ     -19.5973
      XXYZ       1.2559   XYYZ     -12.5348   YYYZ      -0.8436
      XXZZ     -43.2490   XYZZ       1.1998   YYZZ     -44.0187
      XZZZ     -50.3675   YZZZ      -0.9505   ZZZZ    -264.6465
 -----------------------------------------------------------------
 Calculating analytic gradient of the SCF energy
 Gradient of SCF Energy
            1           2           3           4           5           6
    1  -0.0132205  -0.0167309  -0.0213972  -0.0141074   0.0263625  -0.0106351
    2  -0.0014157  -0.0204733   0.0120130   0.0053246   0.0055697  -0.0112147
    3  -0.0174647   0.0678678  -0.0392775   0.0120341  -0.0017008  -0.0257099
            7
    1   0.0497287
    2   0.0101965
    3   0.0042511
 Max gradient component =       6.787E-02
 RMS gradient           =       2.442E-02
 Gradient time:  CPU 2.75 s  wall 0.35 s
 Geometry Optimization Parameters
   NAtoms,    NIC,     NZ,  NCons,   NDum,   NFix, NCnnct, MaxDiis
        7      33       7       0       0       0       0       0


** GEOMETRY OPTIMIZATION IN DELOCALIZED INTERNAL COORDINATES **
   Searching for a Minimum

   Optimization Cycle:   1

                       Coordinates (Angstroms)
     ATOM                X               Y               Z
      1  C         0.0000000000    0.0000000000    0.0000000000
      2  C         0.0000000000    0.0000000000    1.4300000000
      3  O         1.1258330249    0.0000000000    2.0800000000
      4  H        -0.4328730755   -0.9282993062   -0.3728019562
      5  H        -0.5121324783    0.8870394727   -0.3728019562
      6  H        -0.9403756081    0.0822722052    1.9750000000
      7  H         2.0161420144    0.0777434599    1.5679395957
   Point Group: c1    Number of degrees of freedom:    15


   Energy is   -153.692936723


 Attempting to Generate Delocalized Internal Coordinates

 15 Hessian modes will be used to form the next step
  Hessian Eigenvalues:
     0.018438    0.022109    0.028873    0.057772    0.159774    0.160000
     0.160000    0.160000    0.220088    0.348126    0.348126    0.348126
     0.409893    0.427802    0.671931

 Minimum Search - Taking Simple RFO Step
 Searching for Lamda that Minimizes Along All modes
 Value Taken    Lamda =  -0.05396266
 Calculated Step too Large.  Step scaled by  0.443090
 Step Taken.  Stepsize is  0.300000

                             Maximum     Tolerance    Cnvgd?
         Gradient           0.050125      0.000300      NO
         Displacement       0.244362      0.001200      NO
         Energy change     *********      0.000001      NO


 New Cartesian Coordinates Obtained by Inverse Iteration

 Displacement from previous Coordinates is:  0.364392
 ----------------------------------------------------------------
             Standard Nuclear Orientation (Angstroms)
    I     Atom           X                Y                Z
 ----------------------------------------------------------------
    1      C       0.0155499997     0.0210999962    -0.0027703010
    2      C       0.0125208616     0.0401029662     1.4235074499
    3      O       1.1140752298    -0.0081786564     2.1078695708
    4      H      -0.3312659850    -0.9329972113    -0.4044962297
    5      H      -0.5928005638     0.8579471416    -0.3590800088
    6      H      -0.9067880103     0.1289752161     2.0073232904
    7      H       1.9453023454     0.0118063791     1.5349819118
 ----------------------------------------------------------------
 Nuclear Repulsion Energy =    69.9793694976 hartrees
 There are       12 alpha and       12 beta electrons
 Applying Cartesian multipole field
    Component          Value
    ---------          -----
     (2,0,0)        1.00000E-11
     (0,2,0)        2.00000E-10
     (0,0,2)       -3.00000E-11
 Nucleus-field energy     =    -0.0000000041 hartrees
 Requested basis set is 6-31G(d,p)
 There are 24 shells and 65 basis functions
 A cutoff of  1.0D-11 yielded    297 shell pairs
 There are      2231 function pairs
 Smallest overlap matrix eigenvalue = 5.91E-03
 Guess MOs from SCF MO coefficient file

 -----------------------------------------------------------------------
  General SCF calculation program by
  Eric Jon Sundstrom, Paul Horn, Yuezhi Mao, Dmitri Zuev, Alec White,
  David Stuck, Shaama M.S., Shane Yost, Joonho Lee, David Small,
  Daniel Levine, Susi Lehtola, Hugh Burton, Evgeny Epifanovsky
 -----------------------------------------------------------------------
 Exchange:     0.2000 Hartree-Fock + 0.0800 Slater + 0.7200 B88
 Correlation:  0.1900 VWN1RPA + 0.8100 LYP
 Using SG-1 standard quadrature grid
 using 8 threads for integral computing
 -------------------------------------------------------
 OpenMP Integral computing Module                
 Release: version 1.0, May 2013, Q-Chem Inc. Pittsburgh 
 -------------------------------------------------------
 -------------------------------------------------------
 OpenMP BLAS3 based DFT computing Module                
 Release: version 1.0, May 2013, Q-Chem Inc. Pittsburgh 
 -------------------------------------------------------
 A restricted SCF calculation will be
 performed using DIIS
 SCF converges when DIIS error is below 1.0e-08
 ---------------------------------------
  Cycle       Energy         DIIS error
 ---------------------------------------
    1    -153.7105192310      2.01e-03  
    2    -153.7145633714      7.26e-04  
    3    -153.7141053111      1.16e-03  
    4    -153.7148906869      2.68e-04  
    5    -153.7149244017      1.02e-04  
    6    -153.7149300414      4.20e-05  
    7    -153.7149306855      2.03e-05  
    8    -153.7149309261      1.75e-06  
    9    -153.7149309280      1.83e-07  
   10    -153.7149309280      3.77e-08  
   11    -153.7149309280      7.44e-09  Convergence criterion met
 ---------------------------------------
 SCF time:   CPU 4.61s  wall 0.00s 
 SCF   energy in the final basis set =     -153.7149309280
 Total energy in the final basis set =     -153.7149309280
 
 --------------------------------------------------------------
 
                    Orbital Energies (a.u.)
 --------------------------------------------------------------
 
 Alpha MOs
 -- Occupied --
-19.228 -10.294 -10.128  -1.107  -0.735  -0.640  -0.507  -0.475
 -0.441  -0.367  -0.351  -0.163
 -- Virtual --
 -0.061   0.058   0.133   0.159   0.208   0.265   0.325   0.532
  0.541   0.582   0.626   0.653   0.698   0.723   0.747   0.851
  0.873   0.902   0.928   0.946   1.055   1.204   1.340   1.404
  1.454   1.560   1.671   1.704   1.841   1.845   1.963   1.986
  2.069   2.219   2.239   2.277   2.344   2.437   2.516   2.516
  2.579   2.632   2.765   2.805   2.887   2.986   3.297   3.378
  3.433   3.475   3.890   4.198   4.498
 --------------------------------------------------------------
 
          Ground-State Mulliken Net Atomic Charges

     Atom                 Charge (a.u.)
  ----------------------------------------
      1 C                    -0.461727
      2 C                     0.195318
      3 O                    -0.377907
      4 H                     0.107122
      5 H                     0.079441
      6 H                     0.130408
      7 H                     0.327344
  ----------------------------------------
  Sum of atomic charges =     0.000000

 -----------------------------------------------------------------
                    Cartesian Multipole Moments
 -----------------------------------------------------------------
    Charge (ESU x 10^10)
                -0.0000
    Dipole Moment (Debye)
         X       0.0530      Y      -0.2146      Z       1.4590
       Tot       1.4757
    Quadrupole Moments (Debye-Ang)
        XX     -14.9950     XY      -0.0440     YY     -18.2120
        XZ       0.7560     YZ       0.1409     ZZ     -19.2418
    Octopole Moments (Debye-Ang^2)
       XXX      -6.6443    XXY      -0.1209    XYY      -6.4926
       YYY      -1.5726    XXZ     -12.8737    XYZ       0.0801
       YYZ     -20.0457    XZZ      -9.5690    YZZ      -0.3998
       ZZZ     -65.4880
    Hexadecapole Moments (Debye-Ang^3)
      XXXX     -48.9778   XXXY       1.2123   XXYY     -16.7600
      XYYY       0.8974   YYYY     -23.7306   XXXZ     -22.8593
      XXYZ       0.1310   XYYZ     -12.6437   YYYZ      -1.3947
      XXZZ     -46.2835   XYZZ       0.9005   YYZZ     -45.0418
      XZZZ     -52.7174   YZZZ      -1.4697   ZZZZ    -269.4744
 -----------------------------------------------------------------
 Calculating analytic gradient of the SCF energy
 Gradient of SCF Energy
            1           2           3           4           5           6
    1   0.0006416   0.0007944  -0.0269468  -0.0209644   0.0219051  -0.0081049
    2  -0.0076605  -0.0113219   0.0172128   0.0031999   0.0101190  -0.0170324
    3  -0.0234312   0.0557867  -0.0266139   0.0108403  -0.0005635  -0.0149452
            7
    1   0.0326751
    2   0.0054830
    3  -0.0010732
 Max gradient component =       5.579E-02
 RMS gradient           =       2.001E-02
 Gradient time:  CPU 2.52 s  wall 0.32 s
 Geometry Optimization Parameters
   NAtoms,    NIC,     NZ,  NCons,   NDum,   NFix, NCnnct, MaxDiis
        7      33       7       0       0       0       0       0

 Cartesian Hessian Update
 Hessian Updated using BFGS Update


** GEOMETRY OPTIMIZATION IN DELOCALIZED INTERNAL COORDINATES **
   Searching for a Minimum

   Optimization Cycle:   2

                       Coordinates (Angstroms)
     ATOM                X               Y               Z
      1  C         0.0155499997    0.0210999962   -0.0027703010
      2  C         0.0125208616    0.0401029662    1.4235074499
      3  O         1.1140752298   -0.0081786564    2.1078695708
      4  H        -0.3312659850   -0.9329972113   -0.4044962297
      5  H        -0.5928005638    0.8579471416   -0.3590800088
      6  H        -0.9067880103    0.1289752161    2.0073232904
      7  H         1.9453023454    0.0118063791    1.5349819118
   Point Group: c1    Number of degrees of freedom:    15


   Energy is   -153.714930928

 Hessian Updated using BFGS Update

 13 Hessian modes will be used to form the next step
  Hessian Eigenvalues:
     0.008320    0.023147    0.029596    0.059502    0.142625    0.159846
     0.199310    0.257566    0.347638    0.350867    0.397943    0.448797
     0.779363

 Minimum Search - Taking Simple RFO Step
 Searching for Lamda that Minimizes Along All modes
 Value Taken    Lamda =  -0.05518553
 Calculated Step too Large.  Step scaled by  0.342456
 Step Taken.  Stepsize is  0.300000

                             Maximum     Tolerance    Cnvgd?
         Gradient           0.044600      0.000300      NO
         Displacement       0.241367      0.001200      NO
         Energy change     -0.021994      0.000001      NO


 New Cartesian Coordinates Obtained by Inverse Iteration

 Displacement from previous Coordinates is:  0.360193
 ----------------------------------------------------------------
             Standard Nuclear Orientation (Angstroms)
    I     Atom           X                Y                Z
 ----------------------------------------------------------------
    1      C       0.0149615853     0.0370580510     0.0061208029
    2      C       0.0158789380     0.0710364262     1.4215293632
    3      O       1.1111677940    -0.0200605754     2.1238064224
    4      H      -0.2216495334    -0.9272472261    -0.4469363353
    5      H      -0.6712646791     0.8188321983    -0.3432981406
    6      H      -0.8817239179     0.1896822003     2.0364472198
    7      H       1.8892236905    -0.0505452426     1.5096663509
 ----------------------------------------------------------------
 Nuclear Repulsion Energy =    70.1042365075 hartrees
 There are       12 alpha and       12 beta electrons
 Applying Cartesian multipole field
    Component          Value
    ---------          -----
     (2,0,0)        1.00000E-11
     (0,2,0)        2.00000E-10
     (0,0,2)       -3.00000E-11
 Nucleus-field energy     =    -0.0000000042 hartrees
 Requested basis set is 6-31G(d,p)
 There are 24 shells and 65 basis functions
 A cutoff of  1.0D-11 yielded    297 shell pairs
 There are      2231 function pairs
 Smallest overlap matrix eigenvalue = 5.76E-03
 Guess MOs from SCF MO coefficient file

 -----------------------------------------------------------------------
  General SCF calculation program by
  Eric Jon Sundstrom, Paul Horn, Yuezhi Mao, Dmitri Zuev, Alec White,
  David Stuck, Shaama M.S., Shane Yost, Joonho Lee, David Small,
  Daniel Levine, Susi Lehtola, Hugh Burton, Evgeny Epifanovsky
 -----------------------------------------------------------------------
 Exchange:     0.2000 Hartree-Fock + 0.0800 Slater + 0.7200 B88
 Correlation:  0.1900 VWN1RPA + 0.8100 LYP
 Using SG-1 standard quadrature grid
 using 8 threads for integral computing
 -------------------------------------------------------
 OpenMP Integral computing Module                
 Release: version 1.0, May 2013, Q-Chem Inc. Pittsburgh 
 -------------------------------------------------------
 -------------------------------------------------------
 OpenMP BLAS3 based DFT computing Module                
 Release: version 1.0, May 2013, Q-Chem Inc. Pittsburgh 
 -------------------------------------------------------
 A restricted SCF calculation will be
 performed using DIIS
 SCF converges when DIIS error is below 1.0e-08
 ---------------------------------------
  Cycle       Energy         DIIS error
 ---------------------------------------
    1    -153.7286483248      1.90e-03  
    2    -153.7324211647      5.99e-04  
    3    -153.7320327261      1.02e-03  
    4    -153.7326391228      2.31e-04  
    5    -153.7326646000      6.34e-05  
    6    -153.7326663398      3.57e-05  
    7    -153.7326667983      1.44e-05  
    8    -153.7326669183      2.01e-06  
    9    -153.7326669205      1.30e-07  
   10    -153.7326669205      2.90e-08  
   11    -153.7326669205      5.29e-09  Convergence criterion met
 ---------------------------------------
 SCF time:   CPU 4.64s  wall 0.00s 
 SCF   energy in the final basis set =     -153.7326669205
 Total energy in the final basis set =     -153.7326669205
 
 --------------------------------------------------------------
 
                    Orbital Energies (a.u.)
 --------------------------------------------------------------
 
 Alpha MOs
 -- Occupied --
-19.219 -10.283 -10.140  -1.103  -0.734  -0.637  -0.496  -0.480
 -0.434  -0.372  -0.355  -0.177
 -- Virtual --
 -0.051   0.071   0.133   0.158   0.206   0.266   0.327   0.527
  0.544   0.587   0.620   0.655   0.709   0.729   0.750   0.844
  0.881   0.913   0.929   0.941   1.051   1.189   1.350   1.411
  1.454   1.559   1.668   1.703   1.820   1.853   1.980   1.993
  2.075   2.226   2.251   2.309   2.360   2.438   2.499   2.513
  2.604   2.653   2.739   2.805   2.889   3.037   3.287   3.355
  3.455   3.488   3.886   4.199   4.496
 --------------------------------------------------------------
 
          Ground-State Mulliken Net Atomic Charges

     Atom                 Charge (a.u.)
  ----------------------------------------
      1 C                    -0.440106
      2 C                     0.186278
      3 O                    -0.391663
      4 H                     0.116052
      5 H                     0.082000
      6 H                     0.123992
      7 H                     0.323447
  ----------------------------------------
  Sum of atomic charges =    -0.000000

 -----------------------------------------------------------------
                    Cartesian Multipole Moments
 -----------------------------------------------------------------
    Charge (ESU x 10^10)
                -0.0000
    Dipole Moment (Debye)
         X       0.0466      Y      -0.3648      Z       0.9564
       Tot       1.0247
    Quadrupole Moments (Debye-Ang)
        XX     -15.3699     XY      -0.4566     YY     -18.3295
        XZ       0.2400     YZ       0.2532     ZZ     -19.8112
    Octopole Moments (Debye-Ang^2)
       XXX      -7.8281    XXY      -0.6569    XYY      -6.4502
       YYY      -2.3014    XXZ     -14.3164    XYZ      -0.2290
       YYZ     -20.4834    XZZ     -10.6109    YZZ      -0.5403
       ZZZ     -66.9934
    Hexadecapole Moments (Debye-Ang^3)
      XXXX     -51.2300   XXXY       0.9020   XXYY     -16.5622
      XYYY       1.5342   YYYY     -23.7884   XXXZ     -25.5505
      XXYZ      -0.6858   XYYZ     -12.7753   YYYZ      -1.7830
      XXZZ     -48.8549   XYZZ       0.6598   YYZZ     -45.7882
      XZZZ     -55.2402   YZZZ      -1.4821   ZZZZ    -273.1484
 -----------------------------------------------------------------
 Calculating analytic gradient of the SCF energy
 Gradient of SCF Energy
            1           2           3           4           5           6
    1   0.0154283   0.0066915  -0.0230350  -0.0251918   0.0163947  -0.0065306
    2  -0.0104827  -0.0066478   0.0205263   0.0004802   0.0127856  -0.0194476
    3  -0.0259176   0.0454547  -0.0197027   0.0085862   0.0005890  -0.0066801
            7
    1   0.0162429
    2   0.0027860
    3  -0.0023295
 Max gradient component =       4.545E-02
 RMS gradient           =       1.746E-02
 Gradient time:  CPU 2.47 s  wall 0.31 s
 Geometry Optimization Parameters
   NAtoms,    NIC,     NZ,  NCons,   NDum,   NFix, NCnnct, MaxDiis
        7      33       7       0       0       0       0       0

 Cartesian Hessian Update
 Hessian Updated using BFGS Update


** GEOMETRY OPTIMIZATION IN DELOCALIZED INTERNAL COORDINATES **
   Searching for a Minimum

   Optimization Cycle:   3

                       Coordinates (Angstroms)
     ATOM                X               Y               Z
      1  C         0.0149615853    0.0370580510    0.0061208029
      2  C         0.0158789380    0.0710364262    1.4215293632
      3  O         1.1111677940   -0.0200605754    2.1238064224
      4  H        -0.2216495334   -0.9272472261   -0.4469363353
      5  H        -0.6712646791    0.8188321983   -0.3432981406
      6  H        -0.8817239179    0.1896822003    2.0364472198
      7  H         1.8892236905   -0.0505452426    1.5096663509
   Point Group: c1    Number of degrees of freedom:    15


   Energy is   -153.732666921

 Hessian Updated using BFGS Update

 15 Hessian modes will be used to form the next step
  Hessian Eigenvalues:
     0.010730    0.023239    0.029749    0.056902    0.135007    0.159923
     0.160407    0.220747    0.271575    0.347400    0.348141    0.352140
     0.379587    0.492585    0.922194

 Minimum Search - Taking Simple RFO Step
 Searching for Lamda that Minimizes Along All modes
 Value Taken    Lamda =  -0.04714060
 Calculated Step too Large.  Step scaled by  0.344546
 Step Taken.  Stepsize is  0.300000

                             Maximum     Tolerance    Cnvgd?
         Gradient           0.038804      0.000300      NO
         Displacement       0.240545      0.001200      NO
         Energy change     -0.017736      0.000001      NO


 New Cartesian Coordinates Obtained by Inverse Iteration

 Displacement from previous Coordinates is:  0.338580
 ----------------------------------------------------------------
             Standard Nuclear Orientation (Angstroms)
    I     Atom           X                Y                Z
 ----------------------------------------------------------------
    1      C       0.0017576839     0.0515092144     0.0161645720
    2      C       0.0193657840     0.1020337604     1.4161223454
    3      O       1.1112626813    -0.0352319303     2.1351619282
    4      H      -0.1202626765    -0.9087115384    -0.4852809056
    5      H      -0.7514993315     0.7716151975    -0.3323360052
    6      H      -0.8575716502     0.2484739257     2.0553920242
    7      H       1.8535413865    -0.1109327978     1.5021117243
 ----------------------------------------------------------------
 Nuclear Repulsion Energy =    70.1570386896 hartrees
 There are       12 alpha and       12 beta electrons
 Applying Cartesian multipole field
    Component          Value
    ---------          -----
     (2,0,0)        1.00000E-11
     (0,2,0)        2.00000E-10
     (0,0,2)       -3.00000E-11
 Nucleus-field energy     =    -0.0000000043 hartrees
 Requested basis set is 6-31G(d,p)
 There are 24 shells and 65 basis functions
 A cutoff of  1.0D-11 yielded    297 shell pairs
 There are      2231 function pairs
 Smallest overlap matrix eigenvalue = 5.61E-03
 Guess MOs from SCF MO coefficient file

 -----------------------------------------------------------------------
  General SCF calculation program by
  Eric Jon Sundstrom, Paul Horn, Yuezhi Mao, Dmitri Zuev, Alec White,
  David Stuck, Shaama M.S., Shane Yost, Joonho Lee, David Small,
  Daniel Levine, Susi Lehtola, Hugh Burton, Evgeny Epifanovsky
 -----------------------------------------------------------------------
 Exchange:     0.2000 Hartree-Fock + 0.0800 Slater + 0.7200 B88
 Correlation:  0.1900 VWN1RPA + 0.8100 LYP
 Using SG-1 standard quadrature grid
 using 8 threads for integral computing
 -------------------------------------------------------
 OpenMP Integral computing Module                
 Release: version 1.0, May 2013, Q-Chem Inc. Pittsburgh 
 -------------------------------------------------------
 -------------------------------------------------------
 OpenMP BLAS3 based DFT computing Module                
 Release: version 1.0, May 2013, Q-Chem Inc. Pittsburgh 
 -------------------------------------------------------
 A restricted SCF calculation will be
 performed using DIIS
 SCF converges when DIIS error is below 1.0e-08
 ---------------------------------------
  Cycle       Energy         DIIS error
 ---------------------------------------
    1    -153.7442742464      1.83e-03  
    2    -153.7479056655      4.98e-04  
    3    -153.7476822407      8.06e-04  
    4    -153.7480580815      2.09e-04  
    5    -153.7480791896      4.82e-05  
    6    -153.7480801009      2.88e-05  
    7    -153.7480803976      1.04e-05  
    8    -153.7480804600      1.61e-06  
    9    -153.7480804614      8.73e-08  
   10    -153.7480804614      1.57e-08  
   11    -153.7480804614      3.47e-09  Convergence criterion met
 ---------------------------------------
 SCF time:   CPU 4.59s  wall 1.00s 
 SCF   energy in the final basis set =     -153.7480804614
 Total energy in the final basis set =     -153.7480804614
 
 --------------------------------------------------------------
 
                    Orbital Energies (a.u.)
 --------------------------------------------------------------
 
 Alpha MOs
 -- Occupied --
-19.209 -10.274 -10.149  -1.096  -0.735  -0.633  -0.488  -0.483
 -0.427  -0.375  -0.357  -0.190
 -- Virtual --
 -0.041   0.079   0.132   0.159   0.207   0.265   0.332   0.522
  0.547   0.590   0.615   0.658   0.717   0.737   0.750   0.843
  0.887   0.919   0.933   0.940   1.049   1.179   1.362   1.416
  1.447   1.561   1.667   1.705   1.801   1.862   1.982   2.011
  2.080   2.227   2.260   2.326   2.377   2.441   2.493   2.520
  2.619   2.660   2.712   2.808   2.903   3.075   3.282   3.338
  3.469   3.513   3.886   4.199   4.496
 --------------------------------------------------------------
 
          Ground-State Mulliken Net Atomic Charges

     Atom                 Charge (a.u.)
  ----------------------------------------
      1 C                    -0.418599
      2 C                     0.180343
      3 O                    -0.408881
      4 H                     0.120906
      5 H                     0.085510
      6 H                     0.120132
      7 H                     0.320590
  ----------------------------------------
  Sum of atomic charges =    -0.000000

 -----------------------------------------------------------------
                    Cartesian Multipole Moments
 -----------------------------------------------------------------
    Charge (ESU x 10^10)
                 0.0000
    Dipole Moment (Debye)
         X       0.0772      Y      -0.4682      Z       0.5132
       Tot       0.6990
    Quadrupole Moments (Debye-Ang)
        XX     -15.5456     XY      -0.8161     YY     -18.4630
        XZ      -0.1753     YZ       0.3570     ZZ     -20.2954
    Octopole Moments (Debye-Ang^2)
       XXX      -8.4332    XXY      -1.0892    XYY      -6.3198
       YYY      -2.9038    XXZ     -15.3504    XYZ      -0.4838
       YYZ     -20.8238    XZZ     -11.3424    YZZ      -0.5748
       ZZZ     -68.3197
    Hexadecapole Moments (Debye-Ang^3)
      XXXX     -52.7820   XXXY       0.7589   XXYY     -16.4128
      XYYY       2.1815   YYYY     -23.9293   XXXZ     -27.4429
      XXYZ      -1.3580   XYYZ     -12.9676   YYYZ      -2.0917
      XXZZ     -50.6321   XYZZ       0.4651   YYZZ     -46.3207
      XZZZ     -57.3705   YZZZ      -1.1950   ZZZZ    -276.0952
 -----------------------------------------------------------------
 Calculating analytic gradient of the SCF energy
 Gradient of SCF Energy
            1           2           3           4           5           6
    1   0.0270449   0.0074711  -0.0165819  -0.0277591   0.0111718  -0.0050229
    2  -0.0107914  -0.0029523   0.0212776  -0.0020937   0.0134617  -0.0207988
    3  -0.0253542   0.0344642  -0.0142807   0.0064267   0.0010407  -0.0006696
            7
    1   0.0036761
    2   0.0018969
    3  -0.0016272
 Max gradient component =       3.446E-02
 RMS gradient           =       1.585E-02
 Gradient time:  CPU 2.48 s  wall 0.31 s
 Geometry Optimization Parameters
   NAtoms,    NIC,     NZ,  NCons,   NDum,   NFix, NCnnct, MaxDiis
        7      33       7       0       0       0       0       0

 Cartesian Hessian Update
 Hessian Updated using BFGS Update


** GEOMETRY OPTIMIZATION IN DELOCALIZED INTERNAL COORDINATES **
   Searching for a Minimum

   Optimization Cycle:   4

                       Coordinates (Angstroms)
     ATOM                X               Y               Z
      1  C         0.0017576839    0.0515092144    0.0161645720
      2  C         0.0193657840    0.1020337604    1.4161223454
      3  O         1.1112626813   -0.0352319303    2.1351619282
      4  H        -0.1202626765   -0.9087115384   -0.4852809056
      5  H        -0.7514993315    0.7716151975   -0.3323360052
      6  H        -0.8575716502    0.2484739257    2.0553920242
      7  H         1.8535413865   -0.1109327978    1.5021117243
   Point Group: c1    Number of degrees of freedom:    15


   Energy is   -153.748080461

 Hessian Updated using BFGS Update

 15 Hessian modes will be used to form the next step
  Hessian Eigenvalues:
     0.011629    0.023285    0.029706    0.054732    0.135957    0.159931
     0.160767    0.223115    0.288606    0.347453    0.348149    0.352049
     0.370883    0.529805    1.041127

 Minimum Search - Taking Simple RFO Step
 Searching for Lamda that Minimizes Along All modes
 Value Taken    Lamda =  -0.04217072
 Calculated Step too Large.  Step scaled by  0.346689
 Step Taken.  Stepsize is  0.300000

                             Maximum     Tolerance    Cnvgd?
         Gradient           0.033197      0.000300      NO
         Displacement       0.236779      0.001200      NO
         Energy change     -0.015414      0.000001      NO


 New Cartesian Coordinates Obtained by Inverse Iteration

 Displacement from previous Coordinates is:  0.323158
 ----------------------------------------------------------------
             Standard Nuclear Orientation (Angstroms)
    I     Atom           X                Y                Z
 ----------------------------------------------------------------
    1      C      -0.0179203450     0.0628834824     0.0273083216
    2      C       0.0216807358     0.1288344439     1.4091095033
    3      O       1.1117678828    -0.0495005950     2.1425274885
    4      H      -0.0259349821    -0.8790270576    -0.5190082929
    5      H      -0.8273686559     0.7190212152    -0.3221725332
    6      H      -0.8348792374     0.3061851895     2.0675471302
    7      H       1.8292484793    -0.1696408469     1.5020240658
 ----------------------------------------------------------------
 Nuclear Repulsion Energy =    70.1956545374 hartrees
 There are       12 alpha and       12 beta electrons
 Applying Cartesian multipole field
    Component          Value
    ---------          -----
     (2,0,0)        1.00000E-11
     (0,2,0)        2.00000E-10
     (0,0,2)       -3.00000E-11
 Nucleus-field energy     =    -0.0000000043 hartrees
 Requested basis set is 6-31G(d,p)
 There are 24 shells and 65 basis functions
 A cutoff of  1.0D-11 yielded    297 shell pairs
 There are      2231 function pairs
 Smallest overlap matrix eigenvalue = 5.43E-03
 Guess MOs from SCF MO coefficient file

 -----------------------------------------------------------------------
  General SCF calculation program by
  Eric Jon Sundstrom, Paul Horn, Yuezhi Mao, Dmitri Zuev, Alec White,
  David Stuck, Shaama M.S., Shane Yost, Joonho Lee, David Small,
  Daniel Levine, Susi Lehtola, Hugh Burton, Evgeny Epifanovsky
 -----------------------------------------------------------------------
 Exchange:     0.2000 Hartree-Fock + 0.0800 Slater + 0.7200 B88
 Correlation:  0.1900 VWN1RPA + 0.8100 LYP
 Using SG-1 standard quadrature grid
 using 8 threads for integral computing
 -------------------------------------------------------
 OpenMP Integral computing Module                
 Release: version 1.0, May 2013, Q-Chem Inc. Pittsburgh 
 -------------------------------------------------------
 -------------------------------------------------------
 OpenMP BLAS3 based DFT computing Module                
 Release: version 1.0, May 2013, Q-Chem Inc. Pittsburgh 
 -------------------------------------------------------
 A restricted SCF calculation will be
 performed using DIIS
 SCF converges when DIIS error is below 1.0e-08
 ---------------------------------------
  Cycle       Energy         DIIS error
 ---------------------------------------
    1    -153.7585509578      1.74e-03  
    2    -153.7618184971      4.15e-04  
    3    -153.7617355287      5.85e-04  
    4    -153.7619266340      1.85e-04  
    5    -153.7619435796      3.98e-05  
    6    -153.7619442217      2.36e-05  
    7    -153.7619444240      7.41e-06  
    8    -153.7619444559      1.19e-06  
    9    -153.7619444567      5.74e-08  
   10    -153.7619444567      1.17e-08  
   11    -153.7619444567      2.74e-09  Convergence criterion met
 ---------------------------------------
 SCF time:   CPU 4.64s  wall 1.00s 
 SCF   energy in the final basis set =     -153.7619444567
 Total energy in the final basis set =     -153.7619444567
 
 --------------------------------------------------------------
 
                    Orbital Energies (a.u.)
 --------------------------------------------------------------
 
 Alpha MOs
 -- Occupied --
-19.200 -10.267 -10.156  -1.088  -0.737  -0.629  -0.485  -0.482
 -0.420  -0.376  -0.358  -0.200
 -- Virtual --
 -0.030   0.083   0.131   0.159   0.207   0.262   0.339   0.516
  0.549   0.593   0.611   0.661   0.721   0.741   0.759   0.844
  0.893   0.919   0.937   0.950   1.051   1.173   1.372   1.418
  1.437   1.564   1.661   1.718   1.789   1.868   1.980   2.028
  2.082   2.224   2.269   2.336   2.395   2.439   2.495   2.532
  2.626   2.651   2.699   2.814   2.921   3.103   3.279   3.326
  3.477   3.547   3.888   4.200   4.499
 --------------------------------------------------------------
 
          Ground-State Mulliken Net Atomic Charges

     Atom                 Charge (a.u.)
  ----------------------------------------
      1 C                    -0.396722
      2 C                     0.176493
      3 O                    -0.426488
      4 H                     0.121853
      5 H                     0.089119
      6 H                     0.117478
      7 H                     0.318266
  ----------------------------------------
  Sum of atomic charges =     0.000000

 -----------------------------------------------------------------
                    Cartesian Multipole Moments
 -----------------------------------------------------------------
    Charge (ESU x 10^10)
                 0.0000
    Dipole Moment (Debye)
         X       0.1189      Y      -0.5323      Z       0.1355
       Tot       0.5620
    Quadrupole Moments (Debye-Ang)
        XX     -15.6141     XY      -1.1309     YY     -18.5976
        XZ      -0.5177     YZ       0.4330     ZZ     -20.6981
    Octopole Moments (Debye-Ang^2)
       XXX      -8.7413    XXY      -1.4538    XYY      -6.1148
       YYY      -3.3463    XXZ     -16.1409    XYZ      -0.7312
       YYZ     -21.0491    XZZ     -11.8464    YZZ      -0.5488
       ZZZ     -69.4632
    Hexadecapole Moments (Debye-Ang^3)
      XXXX     -53.9803   XXXY       0.6391   XXYY     -16.2608
      XYYY       2.7815   YYYY     -24.1128   XXXZ     -28.7852
      XXYZ      -1.9556   XYYZ     -13.1318   YYYZ      -2.3654
      XXZZ     -51.9279   XYZZ       0.2214   YYZZ     -46.6235
      XZZZ     -59.0449   YZZZ      -0.7990   ZZZZ    -278.3026
 -----------------------------------------------------------------
 Calculating analytic gradient of the SCF energy
 Gradient of SCF Energy
            1           2           3           4           5           6
    1   0.0352524   0.0054527  -0.0099021  -0.0288024   0.0068365  -0.0036625
    2  -0.0087779  -0.0007413   0.0201769  -0.0047123   0.0128135  -0.0208994
    3  -0.0212469   0.0222374  -0.0100039   0.0044568   0.0011757   0.0036915
            7
    1  -0.0051747
    2   0.0021404
    3  -0.0003104
 Max gradient component =       3.525E-02
 RMS gradient           =       1.461E-02
 Gradient time:  CPU 2.49 s  wall 0.31 s
 Geometry Optimization Parameters
   NAtoms,    NIC,     NZ,  NCons,   NDum,   NFix, NCnnct, MaxDiis
        7      33       7       0       0       0       0       0

 Cartesian Hessian Update
 Hessian Updated using BFGS Update


** GEOMETRY OPTIMIZATION IN DELOCALIZED INTERNAL COORDINATES **
   Searching for a Minimum

   Optimization Cycle:   5

                       Coordinates (Angstroms)
     ATOM                X               Y               Z
      1  C        -0.0179203450    0.0628834824    0.0273083216
      2  C         0.0216807358    0.1288344439    1.4091095033
      3  O         1.1117678828   -0.0495005950    2.1425274885
      4  H        -0.0259349821   -0.8790270576   -0.5190082929
      5  H        -0.8273686559    0.7190212152   -0.3221725332
      6  H        -0.8348792374    0.3061851895    2.0675471302
      7  H         1.8292484793   -0.1696408469    1.5020240658
   Point Group: c1    Number of degrees of freedom:    15


   Energy is   -153.761944457

 Hessian Updated using BFGS Update

 15 Hessian modes will be used to form the next step
  Hessian Eigenvalues:
     0.012693    0.023401    0.029627    0.053758    0.142622    0.160051
     0.161267    0.223317    0.304175    0.347975    0.348220    0.353591
     0.367490    0.548413    1.082335

 Minimum Search - Taking Simple RFO Step
 Searching for Lamda that Minimizes Along All modes
 Value Taken    Lamda =  -0.03737860
 Calculated Step too Large.  Step scaled by  0.353454
 Step Taken.  Stepsize is  0.300000

                             Maximum     Tolerance    Cnvgd?
         Gradient           0.028111      0.000300      NO
         Displacement       0.234693      0.001200      NO
         Energy change     -0.013864      0.000001      NO


 New Cartesian Coordinates Obtained by Inverse Iteration

 Displacement from previous Coordinates is:  0.310003
 ----------------------------------------------------------------
             Standard Nuclear Orientation (Angstroms)
    I     Atom           X                Y                Z
 ----------------------------------------------------------------
    1      C      -0.0411542086     0.0722353457     0.0380657429
    2      C       0.0231068879     0.1522029519     1.4029677541
    3      O       1.1126703627    -0.0625850727     2.1468799715
    4      H       0.0619923330    -0.8399432297    -0.5459576227
    5      H      -0.8977062104     0.6626338102    -0.3139734146
    6      H      -0.8146000061     0.3618161741     2.0747719893
    7      H       1.8122847189    -0.2276041479     1.5045812629
 ----------------------------------------------------------------
 Nuclear Repulsion Energy =    70.1992041692 hartrees
 There are       12 alpha and       12 beta electrons
 Applying Cartesian multipole field
    Component          Value
    ---------          -----
     (2,0,0)        1.00000E-11
     (0,2,0)        2.00000E-10
     (0,0,2)       -3.00000E-11
 Nucleus-field energy     =    -0.0000000043 hartrees
 Requested basis set is 6-31G(d,p)
 There are 24 shells and 65 basis functions
 A cutoff of  1.0D-11 yielded    297 shell pairs
 There are      2231 function pairs
 Smallest overlap matrix eigenvalue = 5.27E-03
 Guess MOs from SCF MO coefficient file

 -----------------------------------------------------------------------
  General SCF calculation program by
  Eric Jon Sundstrom, Paul Horn, Yuezhi Mao, Dmitri Zuev, Alec White,
  David Stuck, Shaama M.S., Shane Yost, Joonho Lee, David Small,
  Daniel Levine, Susi Lehtola, Hugh Burton, Evgeny Epifanovsky
 -----------------------------------------------------------------------
 Exchange:     0.2000 Hartree-Fock + 0.0800 Slater + 0.7200 B88
 Correlation:  0.1900 VWN1RPA + 0.8100 LYP
 Using SG-1 standard quadrature grid
 using 8 threads for integral computing
 -------------------------------------------------------
 OpenMP Integral computing Module                
 Release: version 1.0, May 2013, Q-Chem Inc. Pittsburgh 
 -------------------------------------------------------
 -------------------------------------------------------
 OpenMP BLAS3 based DFT computing Module                
 Release: version 1.0, May 2013, Q-Chem Inc. Pittsburgh 
 -------------------------------------------------------
 A restricted SCF calculation will be
 performed using DIIS
 SCF converges when DIIS error is below 1.0e-08
 ---------------------------------------
  Cycle       Energy         DIIS error
 ---------------------------------------
    1    -153.7714609793      1.64e-03  
    2    -153.7743047508      3.39e-04  
    3    -153.7742868252      4.20e-04  
    4    -153.7743823878      1.41e-04  
    5    -153.7743921900      3.41e-05  
    6    -153.7743927083      1.89e-05  
    7    -153.7743928425      5.13e-06  
    8    -153.7743928578      8.22e-07  
    9    -153.7743928581      4.34e-08  
   10    -153.7743928581      8.21e-09  Convergence criterion met
 ---------------------------------------
 SCF time:   CPU 4.18s  wall 1.00s 
 SCF   energy in the final basis set =     -153.7743928581
 Total energy in the final basis set =     -153.7743928581
 
 --------------------------------------------------------------
 
                    Orbital Energies (a.u.)
 --------------------------------------------------------------
 
 Alpha MOs
 -- Occupied --
-19.193 -10.260 -10.161  -1.080  -0.740  -0.625  -0.487  -0.478
 -0.413  -0.376  -0.359  -0.209
 -- Virtual --
 -0.018   0.084   0.130   0.158   0.207   0.260   0.345   0.512
  0.550   0.595   0.609   0.661   0.714   0.749   0.773   0.846
  0.899   0.917   0.940   0.961   1.055   1.170   1.379   1.414
  1.430   1.568   1.652   1.738   1.784   1.870   1.977   2.037
  2.082   2.215   2.277   2.349   2.409   2.432   2.501   2.546
  2.628   2.632   2.699   2.820   2.935   3.122   3.280   3.315
  3.479   3.587   3.891   4.201   4.503
 --------------------------------------------------------------
 
          Ground-State Mulliken Net Atomic Charges

     Atom                 Charge (a.u.)
  ----------------------------------------
      1 C                    -0.375146
      2 C                     0.173640
      3 O                    -0.442805
      4 H                     0.119626
      5 H                     0.092269
      6 H                     0.115777
      7 H                     0.316639
  ----------------------------------------
  Sum of atomic charges =     0.000000

 -----------------------------------------------------------------
                    Cartesian Multipole Moments
 -----------------------------------------------------------------
    Charge (ESU x 10^10)
                 0.0000
    Dipole Moment (Debye)
         X       0.1598      Y      -0.5685      Z      -0.1650
       Tot       0.6131
    Quadrupole Moments (Debye-Ang)
        XX     -15.6173     XY      -1.4080     YY     -18.7263
        XZ      -0.7916     YZ       0.4807     ZZ     -21.0137
    Octopole Moments (Debye-Ang^2)
       XXX      -8.9020    XXY      -1.7961    XYY      -5.8609
       YYY      -3.6686    XXZ     -16.7585    XYZ      -0.9848
       YYZ     -21.1584    XZZ     -12.1691    YZZ      -0.4856
       ZZZ     -70.3934
    Hexadecapole Moments (Debye-Ang^3)
      XXXX     -55.0376   XXXY       0.4901   XXYY     -16.1063
      XYYY       3.3321   YYYY     -24.3214   XXXZ     -29.7602
      XXYZ      -2.5090   XYYZ     -13.2417   YYYZ      -2.6067
      XXZZ     -52.9118   XYZZ      -0.0790   YYZZ     -46.7413
      XZZZ     -60.2931   YZZZ      -0.3605   ZZZZ    -279.9172
 -----------------------------------------------------------------
 Calculating analytic gradient of the SCF energy
 Gradient of SCF Energy
            1           2           3           4           5           6
    1   0.0395746   0.0024798  -0.0045377  -0.0281902   0.0033913  -0.0026166
    2  -0.0052359   0.0006255   0.0176886  -0.0071285   0.0111694  -0.0199440
    3  -0.0159614   0.0112119  -0.0059175   0.0025899   0.0010986   0.0064959
            7
    1  -0.0101011
    2   0.0028249
    3   0.0004826
 Max gradient component =       3.957E-02
 RMS gradient           =       1.362E-02
 Gradient time:  CPU 2.48 s  wall 0.31 s
 Geometry Optimization Parameters
   NAtoms,    NIC,     NZ,  NCons,   NDum,   NFix, NCnnct, MaxDiis
        7      33       7       0       0       0       0       0

 Cartesian Hessian Update
 Hessian Updated using BFGS Update


** GEOMETRY OPTIMIZATION IN DELOCALIZED INTERNAL COORDINATES **
   Searching for a Minimum

   Optimization Cycle:   6

                       Coordinates (Angstroms)
     ATOM                X               Y               Z
      1  C        -0.0411542086    0.0722353457    0.0380657429
      2  C         0.0231068879    0.1522029519    1.4029677541
      3  O         1.1126703627   -0.0625850727    2.1468799715
      4  H         0.0619923330   -0.8399432297   -0.5459576227
      5  H        -0.8977062104    0.6626338102   -0.3139734146
      6  H        -0.8146000061    0.3618161741    2.0747719893
      7  H         1.8122847189   -0.2276041479    1.5045812629
   Point Group: c1    Number of degrees of freedom:    15


   Energy is   -153.774392858

 Hessian Updated using BFGS Update

 15 Hessian modes will be used to form the next step
  Hessian Eigenvalues:
     0.014139    0.023742    0.029595    0.053197    0.150717    0.160223
     0.163817    0.223230    0.315960    0.348075    0.348464    0.357215
     0.364988    0.559595    1.056855

 Minimum Search - Taking Simple RFO Step
 Searching for Lamda that Minimizes Along All modes
 Value Taken    Lamda =  -0.03233203
 Calculated Step too Large.  Step scaled by  0.365930
 Step Taken.  Stepsize is  0.300000

                             Maximum     Tolerance    Cnvgd?
         Gradient           0.025170      0.000300      NO
         Displacement       0.231682      0.001200      NO
         Energy change     -0.012448      0.000001      NO


 New Cartesian Coordinates Obtained by Inverse Iteration

 Displacement from previous Coordinates is:  0.298171
 ----------------------------------------------------------------
             Standard Nuclear Orientation (Angstroms)
    I     Atom           X                Y                Z
 ----------------------------------------------------------------
    1      C      -0.0668332981     0.0796990404     0.0484117278
    2      C       0.0232378055     0.1715999014     1.3989899035
    3      O       1.1142662638    -0.0744258278     2.1478328981
    4      H       0.1453176019    -0.7933218955    -0.5642179206
    5      H      -0.9611231138     0.6045807536    -0.3088929860
    6      H      -0.7965906210     0.4153511186     2.0792644348
    7      H       1.7983192391    -0.2847272592     1.5059476257
 ----------------------------------------------------------------
 Nuclear Repulsion Energy =    70.1812072576 hartrees
 There are       12 alpha and       12 beta electrons
 Applying Cartesian multipole field
    Component          Value
    ---------          -----
     (2,0,0)        1.00000E-11
     (0,2,0)        2.00000E-10
     (0,0,2)       -3.00000E-11
 Nucleus-field energy     =    -0.0000000044 hartrees
 Requested basis set is 6-31G(d,p)
 There are 24 shells and 65 basis functions
 A cutoff of  1.0D-11 yielded    297 shell pairs
 There are      2231 function pairs
 Smallest overlap matrix eigenvalue = 5.15E-03
 Guess MOs from SCF MO coefficient file

 -----------------------------------------------------------------------
  General SCF calculation program by
  Eric Jon Sundstrom, Paul Horn, Yuezhi Mao, Dmitri Zuev, Alec White,
  David Stuck, Shaama M.S., Shane Yost, Joonho Lee, David Small,
  Daniel Levine, Susi Lehtola, Hugh Burton, Evgeny Epifanovsky
 -----------------------------------------------------------------------
 Exchange:     0.2000 Hartree-Fock + 0.0800 Slater + 0.7200 B88
 Correlation:  0.1900 VWN1RPA + 0.8100 LYP
 Using SG-1 standard quadrature grid
 using 8 threads for integral computing
 -------------------------------------------------------
 OpenMP Integral computing Module                
 Release: version 1.0, May 2013, Q-Chem Inc. Pittsburgh 
 -------------------------------------------------------
 -------------------------------------------------------
 OpenMP BLAS3 based DFT computing Module                
 Release: version 1.0, May 2013, Q-Chem Inc. Pittsburgh 
 -------------------------------------------------------
 A restricted SCF calculation will be
 performed using DIIS
 SCF converges when DIIS error is below 1.0e-08
 ---------------------------------------
  Cycle       Energy         DIIS error
 ---------------------------------------
    1    -153.7829369781      1.54e-03  
    2    -153.7853703086      2.72e-04  
    3    -153.7853771704      3.03e-04  
    4    -153.7854258153      1.02e-04  
    5    -153.7854307606      2.84e-05  
    6    -153.7854311540      1.42e-05  
    7    -153.7854312329      3.55e-06  
    8    -153.7854312400      5.43e-07  
    9    -153.7854312402      3.69e-08  
   10    -153.7854312402      6.14e-09  Convergence criterion met
 ---------------------------------------
 SCF time:   CPU 4.15s  wall 1.00s 
 SCF   energy in the final basis set =     -153.7854312402
 Total energy in the final basis set =     -153.7854312402
 
 --------------------------------------------------------------
 
                    Orbital Energies (a.u.)
 --------------------------------------------------------------
 
 Alpha MOs
 -- Occupied --
-19.188 -10.255 -10.165  -1.073  -0.742  -0.622  -0.489  -0.476
 -0.407  -0.375  -0.361  -0.216
 -- Virtual --
 -0.006   0.083   0.129   0.157   0.205   0.260   0.351   0.509
  0.549   0.598   0.608   0.658   0.706   0.756   0.790   0.848
  0.907   0.917   0.944   0.972   1.060   1.171   1.381   1.402
  1.432   1.571   1.643   1.752   1.793   1.869   1.975   2.034
  2.082   2.202   2.287   2.364   2.418   2.422   2.507   2.554
  2.612   2.632   2.703   2.825   2.943   3.135   3.285   3.306
  3.476   3.626   3.895   4.202   4.507
 --------------------------------------------------------------
 
          Ground-State Mulliken Net Atomic Charges

     Atom                 Charge (a.u.)
  ----------------------------------------
      1 C                    -0.354986
      2 C                     0.171825
      3 O                    -0.456825
      4 H                     0.115038
      5 H                     0.094844
      6 H                     0.114549
      7 H                     0.315555
  ----------------------------------------
  Sum of atomic charges =     0.000000

 -----------------------------------------------------------------
                    Cartesian Multipole Moments
 -----------------------------------------------------------------
    Charge (ESU x 10^10)
                 0.0000
    Dipole Moment (Debye)
         X       0.1942      Y      -0.5849      Z      -0.3921
       Tot       0.7304
    Quadrupole Moments (Debye-Ang)
        XX     -15.5949     XY      -1.6525     YY     -18.8357
        XZ      -1.0093     YZ       0.5014     ZZ     -21.2462
    Octopole Moments (Debye-Ang^2)
       XXX      -9.0043    XXY      -2.1239    XYY      -5.5720
       YYY      -3.8801    XXZ     -17.2803    XYZ      -1.2436
       YYZ     -21.1592    XZZ     -12.3512    YZZ      -0.3891
       ZZZ     -71.0906
    Hexadecapole Moments (Debye-Ang^3)
      XXXX     -56.1250   XXXY       0.3124   XXYY     -15.9469
      XYYY       3.8282   YYYY     -24.5193   XXXZ     -30.5075
      XXYZ      -3.0104   XYYZ     -13.2725   YYYZ      -2.7984
      XXZZ     -53.7098   XYZZ      -0.4138   YYZZ     -46.6803
      XZZZ     -61.1322   YZZZ       0.1031   ZZZZ    -280.8335
 -----------------------------------------------------------------
 Calculating analytic gradient of the SCF energy
 Gradient of SCF Energy
            1           2           3           4           5           6
    1   0.0399405  -0.0002767  -0.0005434  -0.0258824   0.0008201  -0.0018229
    2  -0.0009367   0.0011173   0.0145288  -0.0090741   0.0089616  -0.0180682
    3  -0.0108830   0.0026499  -0.0022992   0.0009410   0.0008926   0.0078909
            7
    1  -0.0122351
    2   0.0034714
    3   0.0008078
 Max gradient component =       3.994E-02
 RMS gradient           =       1.259E-02
 Gradient time:  CPU 2.54 s  wall 0.32 s
 Geometry Optimization Parameters
   NAtoms,    NIC,     NZ,  NCons,   NDum,   NFix, NCnnct, MaxDiis
        7      33       7       0       0       0       0       0

 Cartesian Hessian Update
 Hessian Updated using BFGS Update


** GEOMETRY OPTIMIZATION IN DELOCALIZED INTERNAL COORDINATES **
   Searching for a Minimum

   Optimization Cycle:   7

                       Coordinates (Angstroms)
     ATOM                X               Y               Z
      1  C        -0.0668332981    0.0796990404    0.0484117278
      2  C         0.0232378055    0.1715999014    1.3989899035
      3  O         1.1142662638   -0.0744258278    2.1478328981
      4  H         0.1453176019   -0.7933218955   -0.5642179206
      5  H        -0.9611231138    0.6045807536   -0.3088929860
      6  H        -0.7965906210    0.4153511186    2.0792644348
      7  H         1.7983192391   -0.2847272592    1.5059476257
   Point Group: c1    Number of degrees of freedom:    15


   Energy is   -153.785431240

 Hessian Updated using BFGS Update

 15 Hessian modes will be used to form the next step
  Hessian Eigenvalues:
     0.015506    0.023969    0.029599    0.052872    0.154639    0.160260
     0.170277    0.223155    0.323352    0.348110    0.348580    0.362180
     0.363120    0.567726    1.002501

 Minimum Search - Taking Simple RFO Step
 Searching for Lamda that Minimizes Along All modes
 Value Taken    Lamda =  -0.02730526
 Calculated Step too Large.  Step scaled by  0.382547
 Step Taken.  Stepsize is  0.300000

                             Maximum     Tolerance    Cnvgd?
         Gradient           0.024969      0.000300      NO
         Displacement       0.226900      0.001200      NO
         Energy change     -0.011038      0.000001      NO


 New Cartesian Coordinates Obtained by Inverse Iteration

 Displacement from previous Coordinates is:  0.289201
 ----------------------------------------------------------------
             Standard Nuclear Orientation (Angstroms)
    I     Atom           X                Y                Z
 ----------------------------------------------------------------
    1      C      -0.0949964271     0.0844377985     0.0585733214
    2      C       0.0220607352     0.1874779046     1.3972748913
    3      O       1.1166089246    -0.0853346546     2.1450927913
    4      H       0.2252299080    -0.7402373488    -0.5730157333
    5      H      -1.0174051317     0.5462887119    -0.3077562935
    6      H      -0.7801402036     0.4669591729     2.0824746872
    7      H       1.7852360721    -0.3408357530     1.5046920189
 ----------------------------------------------------------------
 Nuclear Repulsion Energy =    70.1554386647 hartrees
 There are       12 alpha and       12 beta electrons
 Applying Cartesian multipole field
    Component          Value
    ---------          -----
     (2,0,0)        1.00000E-11
     (0,2,0)        2.00000E-10
     (0,0,2)       -3.00000E-11
 Nucleus-field energy     =    -0.0000000044 hartrees
 Requested basis set is 6-31G(d,p)
 There are 24 shells and 65 basis functions
 A cutoff of  1.0D-11 yielded    297 shell pairs
 There are      2231 function pairs
 Smallest overlap matrix eigenvalue = 5.06E-03
 Guess MOs from SCF MO coefficient file

 -----------------------------------------------------------------------
  General SCF calculation program by
  Eric Jon Sundstrom, Paul Horn, Yuezhi Mao, Dmitri Zuev, Alec White,
  David Stuck, Shaama M.S., Shane Yost, Joonho Lee, David Small,
  Daniel Levine, Susi Lehtola, Hugh Burton, Evgeny Epifanovsky
 -----------------------------------------------------------------------
 Exchange:     0.2000 Hartree-Fock + 0.0800 Slater + 0.7200 B88
 Correlation:  0.1900 VWN1RPA + 0.8100 LYP
 Using SG-1 standard quadrature grid
 using 8 threads for integral computing
 -------------------------------------------------------
 OpenMP Integral computing Module                
 Release: version 1.0, May 2013, Q-Chem Inc. Pittsburgh 
 -------------------------------------------------------
 -------------------------------------------------------
 OpenMP BLAS3 based DFT computing Module                
 Release: version 1.0, May 2013, Q-Chem Inc. Pittsburgh 
 -------------------------------------------------------
 A restricted SCF calculation will be
 performed using DIIS
 SCF converges when DIIS error is below 1.0e-08
 ---------------------------------------
  Cycle       Energy         DIIS error
 ---------------------------------------
    1    -153.7928786975      1.48e-03  
    2    -153.7950215823      2.18e-04  
    3    -153.7950376352      2.15e-04  
    4    -153.7950618077      7.39e-05  
    5    -153.7950643252      2.41e-05  
    6    -153.7950646335      9.58e-06  
    7    -153.7950646699      2.66e-06  
    8    -153.7950646736      3.56e-07  
    9    -153.7950646737      3.37e-08  
   10    -153.7950646737      4.87e-09  Convergence criterion met
 ---------------------------------------
 SCF time:   CPU 4.16s  wall 1.00s 
 SCF   energy in the final basis set =     -153.7950646737
 Total energy in the final basis set =     -153.7950646737
 
 --------------------------------------------------------------
 
                    Orbital Energies (a.u.)
 --------------------------------------------------------------
 
 Alpha MOs
 -- Occupied --
-19.185 -10.251 -10.167  -1.068  -0.743  -0.619  -0.490  -0.475
 -0.402  -0.374  -0.364  -0.222
 -- Virtual --
  0.006   0.082   0.128   0.154   0.201   0.263   0.356   0.506
  0.548   0.601   0.608   0.653   0.699   0.760   0.806   0.850
  0.913   0.923   0.949   0.985   1.065   1.174   1.374   1.393
  1.436   1.574   1.634   1.754   1.818   1.868   1.975   2.023
  2.083   2.186   2.298   2.375   2.413   2.428   2.518   2.550
  2.603   2.637   2.705   2.827   2.942   3.144   3.282   3.312
  3.469   3.660   3.901   4.200   4.511
 --------------------------------------------------------------
 
          Ground-State Mulliken Net Atomic Charges

     Atom                 Charge (a.u.)
  ----------------------------------------
      1 C                    -0.337229
      2 C                     0.171554
      3 O                    -0.468494
      4 H                     0.108856
      5 H                     0.097021
      6 H                     0.113437
      7 H                     0.314855
  ----------------------------------------
  Sum of atomic charges =    -0.000000

 -----------------------------------------------------------------
                    Cartesian Multipole Moments
 -----------------------------------------------------------------
    Charge (ESU x 10^10)
                -0.0000
    Dipole Moment (Debye)
         X       0.2221      Y      -0.5859      Z      -0.5579
       Tot       0.8389
    Quadrupole Moments (Debye-Ang)
        XX     -15.5660     XY      -1.8671     YY     -18.9184
        XZ      -1.1771     YZ       0.4986     ZZ     -21.4078
    Octopole Moments (Debye-Ang^2)
       XXX      -9.0718    XXY      -2.4335    XYY      -5.2559
       YYY      -3.9837    XXZ     -17.7505    XYZ      -1.5025
       YYZ     -21.0667    XZZ     -12.4169    YZZ      -0.2595
       ZZZ     -71.5614
    Hexadecapole Moments (Debye-Ang^3)
      XXXX     -57.3092   XXXY       0.1200   XXYY     -15.7843
      XYYY       4.2679   YYYY     -24.6811   XXXZ     -31.0960
      XXYZ      -3.4557   XYYZ     -13.2151   YYYZ      -2.9368
      XXZZ     -54.3775   XYZZ      -0.7533   YYZZ     -46.4494
      XZZZ     -61.5852   YZZZ       0.5762   ZZZZ    -280.9796
 -----------------------------------------------------------------
 Calculating analytic gradient of the SCF energy
 Gradient of SCF Energy
            1           2           3           4           5           6
    1   0.0366042  -0.0020555   0.0021631  -0.0221395  -0.0009052  -0.0012033
    2   0.0031715   0.0009840   0.0111723  -0.0102475   0.0065850  -0.0155066
    3  -0.0068900  -0.0031041   0.0006419  -0.0002376   0.0006152   0.0081489
            7
    1  -0.0124637
    2   0.0038414
    3   0.0008257
 Max gradient component =       3.660E-02
 RMS gradient           =       1.126E-02
 Gradient time:  CPU 2.49 s  wall 0.31 s
 Geometry Optimization Parameters
   NAtoms,    NIC,     NZ,  NCons,   NDum,   NFix, NCnnct, MaxDiis
        7      33       7       0       0       0       0       0

 Cartesian Hessian Update
 Hessian Updated using BFGS Update


** GEOMETRY OPTIMIZATION IN DELOCALIZED INTERNAL COORDINATES **
   Searching for a Minimum

   Optimization Cycle:   8

                       Coordinates (Angstroms)
     ATOM                X               Y               Z
      1  C        -0.0949964271    0.0844377985    0.0585733214
      2  C         0.0220607352    0.1874779046    1.3972748913
      3  O         1.1166089246   -0.0853346546    2.1450927913
      4  H         0.2252299080   -0.7402373488   -0.5730157333
      5  H        -1.0174051317    0.5462887119   -0.3077562935
      6  H        -0.7801402036    0.4669591729    2.0824746872
      7  H         1.7852360721   -0.3408357530    1.5046920189
   Point Group: c1    Number of degrees of freedom:    15


   Energy is   -153.795064674

 Hessian Updated using BFGS Update

 15 Hessian modes will be used to form the next step
  Hessian Eigenvalues:
     0.016739    0.024085    0.029615    0.052780    0.155724    0.160261
     0.176251    0.223092    0.326958    0.348146    0.348654    0.361478
     0.366346    0.573008    0.942983

 Minimum Search - Taking Simple RFO Step
 Searching for Lamda that Minimizes Along All modes
 Value Taken    Lamda =  -0.02231668
 Calculated Step too Large.  Step scaled by  0.404868
 Step Taken.  Stepsize is  0.300000

                             Maximum     Tolerance    Cnvgd?
         Gradient           0.022785      0.000300      NO
         Displacement       0.219994      0.001200      NO
         Energy change     -0.009633      0.000001      NO


 New Cartesian Coordinates Obtained by Inverse Iteration

 Displacement from previous Coordinates is:  0.284834
 ----------------------------------------------------------------
             Standard Nuclear Orientation (Angstroms)
    I     Atom           X                Y                Z
 ----------------------------------------------------------------
    1      C      -0.1256758526     0.0842731968     0.0692974510
    2      C       0.0194675528     0.2000310907     1.3975415249
    3      O       1.1196905587    -0.0949088775     2.1385149583
    4      H       0.3023045781    -0.6804635035    -0.5734047282
    5      H      -1.0665074483     0.4883798689    -0.3102964943
    6      H      -0.7644131917     0.5175567180     2.0851010588
    7      H       1.7717276804    -0.3961126619     1.5005819129
 ----------------------------------------------------------------
 Nuclear Repulsion Energy =    70.1397505058 hartrees
 There are       12 alpha and       12 beta electrons
 Applying Cartesian multipole field
    Component          Value
    ---------          -----
     (2,0,0)        1.00000E-11
     (0,2,0)        2.00000E-10
     (0,0,2)       -3.00000E-11
 Nucleus-field energy     =    -0.0000000043 hartrees
 Requested basis set is 6-31G(d,p)
 There are 24 shells and 65 basis functions
 A cutoff of  1.0D-11 yielded    297 shell pairs
 There are      2231 function pairs
 Smallest overlap matrix eigenvalue = 5.01E-03
 Guess MOs from SCF MO coefficient file

 -----------------------------------------------------------------------
  General SCF calculation program by
  Eric Jon Sundstrom, Paul Horn, Yuezhi Mao, Dmitri Zuev, Alec White,
  David Stuck, Shaama M.S., Shane Yost, Joonho Lee, David Small,
  Daniel Levine, Susi Lehtola, Hugh Burton, Evgeny Epifanovsky
 -----------------------------------------------------------------------
 Exchange:     0.2000 Hartree-Fock + 0.0800 Slater + 0.7200 B88
 Correlation:  0.1900 VWN1RPA + 0.8100 LYP
 Using SG-1 standard quadrature grid
 using 8 threads for integral computing
 -------------------------------------------------------
 OpenMP Integral computing Module                
 Release: version 1.0, May 2013, Q-Chem Inc. Pittsburgh 
 -------------------------------------------------------
 -------------------------------------------------------
 OpenMP BLAS3 based DFT computing Module                
 Release: version 1.0, May 2013, Q-Chem Inc. Pittsburgh 
 -------------------------------------------------------
 A restricted SCF calculation will be
 performed using DIIS
 SCF converges when DIIS error is below 1.0e-08
 ---------------------------------------
  Cycle       Energy         DIIS error
 ---------------------------------------
    1    -153.8011840880      1.46e-03  
    2    -153.8031865913      1.81e-04  
    3    -153.8032061139      1.54e-04  
    4    -153.8032180659      5.57e-05  
    5    -153.8032193849      2.21e-05  
    6    -153.8032196583      5.46e-06  
    7    -153.8032196705      2.18e-06  
    8    -153.8032196726      2.63e-07  
    9    -153.8032196726      3.26e-08  
   10    -153.8032196726      3.85e-09  Convergence criterion met
 ---------------------------------------
 SCF time:   CPU 4.15s  wall 1.00s 
 SCF   energy in the final basis set =     -153.8032196726
 Total energy in the final basis set =     -153.8032196726
 
 --------------------------------------------------------------
 
                    Orbital Energies (a.u.)
 --------------------------------------------------------------
 
 Alpha MOs
 -- Occupied --
-19.182 -10.248 -10.169  -1.064  -0.744  -0.618  -0.490  -0.475
 -0.398  -0.373  -0.367  -0.226
 -- Virtual --
  0.018   0.080   0.127   0.151   0.197   0.268   0.360   0.503
  0.547   0.603   0.611   0.647   0.691   0.762   0.818   0.851
  0.913   0.933   0.957   1.006   1.071   1.178   1.362   1.389
  1.442   1.576   1.624   1.750   1.846   1.868   1.971   2.013
  2.082   2.170   2.308   2.374   2.408   2.438   2.533   2.544
  2.600   2.644   2.708   2.827   2.930   3.150   3.271   3.336
  3.463   3.688   3.907   4.197   4.513
 --------------------------------------------------------------
 
          Ground-State Mulliken Net Atomic Charges

     Atom                 Charge (a.u.)
  ----------------------------------------
      1 C                    -0.322426
      2 C                     0.173228
      3 O                    -0.478164
      4 H                     0.101727
      5 H                     0.099012
      6 H                     0.112250
      7 H                     0.314374
  ----------------------------------------
  Sum of atomic charges =    -0.000000

 -----------------------------------------------------------------
                    Cartesian Multipole Moments
 -----------------------------------------------------------------
    Charge (ESU x 10^10)
                -0.0000
    Dipole Moment (Debye)
         X       0.2437      Y      -0.5728      Z      -0.6780
       Tot       0.9205
    Quadrupole Moments (Debye-Ang)
        XX     -15.5436     XY      -2.0562     YY     -18.9705
        XZ      -1.3034     YZ       0.4745     ZZ     -21.5112
    Octopole Moments (Debye-Ang^2)
       XXX      -9.1127    XXY      -2.7159    XYY      -4.9165
       YYY      -3.9619    XXZ     -18.2009    XYZ      -1.7643
       YYZ     -20.8971    XZZ     -12.3886    YZZ      -0.0978
       ZZZ     -71.8388
    Hexadecapole Moments (Debye-Ang^3)
      XXXX     -58.6320   XXXY      -0.0941   XXYY     -15.6187
      XYYY       4.6304   YYYY     -24.7725   XXXZ     -31.5688
      XXYZ      -3.8561   XYYZ     -13.0670   YYYZ      -3.0417
      XXZZ     -54.9520   XYZZ      -1.0928   YYZZ     -46.0491
      XZZZ     -61.6856   YZZZ       1.0225   ZZZZ    -280.3488
 -----------------------------------------------------------------
 Calculating analytic gradient of the SCF energy
 Gradient of SCF Energy
            1           2           3           4           5           6
    1   0.0300226  -0.0026889   0.0037663  -0.0171878  -0.0017557  -0.0006765
    2   0.0062685   0.0004108   0.0079477  -0.0103253   0.0042820  -0.0124014
    3  -0.0038388  -0.0065155   0.0026271  -0.0008804   0.0003299   0.0075550
            7
    1  -0.0114800
    2   0.0038176
    3   0.0007228
 Max gradient component =       3.002E-02
 RMS gradient           =       9.442E-03
 Gradient time:  CPU 2.49 s  wall 0.31 s
 Geometry Optimization Parameters
   NAtoms,    NIC,     NZ,  NCons,   NDum,   NFix, NCnnct, MaxDiis
        7      33       7       0       0       0       0       0

 Cartesian Hessian Update
 Hessian Updated using BFGS Update


** GEOMETRY OPTIMIZATION IN DELOCALIZED INTERNAL COORDINATES **
   Searching for a Minimum

   Optimization Cycle:   9

                       Coordinates (Angstroms)
     ATOM                X               Y               Z
      1  C        -0.1256758526    0.0842731968    0.0692974510
      2  C         0.0194675528    0.2000310907    1.3975415249
      3  O         1.1196905587   -0.0949088775    2.1385149583
      4  H         0.3023045781   -0.6804635035   -0.5734047282
[...]
    7      H       1.7540590411    -0.5455409293     1.4951297913
 ----------------------------------------------------------------
 Nuclear Repulsion Energy =    70.1836648339 hartrees
 There are       12 alpha and       12 beta electrons
 Applying Cartesian multipole field
    Component          Value
    ---------          -----
     (2,0,0)        1.00000E-11
     (0,2,0)        2.00000E-10
     (0,0,2)       -3.00000E-11
 Nucleus-field energy     =    -0.0000000042 hartrees
 Requested basis set is 6-31G(d,p)
 There are 24 shells and 65 basis functions
 A cutoff of  1.0D-11 yielded    298 shell pairs
 There are      2234 function pairs
 Smallest overlap matrix eigenvalue = 4.82E-03
 Guess MOs from SCF MO coefficient file

 -----------------------------------------------------------------------
  General SCF calculation program by
  Eric Jon Sundstrom, Paul Horn, Yuezhi Mao, Dmitri Zuev, Alec White,
  David Stuck, Shaama M.S., Shane Yost, Joonho Lee, David Small,
  Daniel Levine, Susi Lehtola, Hugh Burton, Evgeny Epifanovsky
 -----------------------------------------------------------------------
 Exchange:     0.2000 Hartree-Fock + 0.0800 Slater + 0.7200 B88
 Correlation:  0.1900 VWN1RPA + 0.8100 LYP
 Using SG-1 standard quadrature grid
 using 8 threads for integral computing
 -------------------------------------------------------
 OpenMP Integral computing Module                
 Release: version 1.0, May 2013, Q-Chem Inc. Pittsburgh 
 -------------------------------------------------------
 -------------------------------------------------------
 OpenMP BLAS3 based DFT computing Module                
 Release: version 1.0, May 2013, Q-Chem Inc. Pittsburgh 
 -------------------------------------------------------
 A restricted SCF calculation will be
 performed using DIIS
 SCF converges when DIIS error is below 1.0e-08
 ---------------------------------------
  Cycle       Energy         DIIS error
 ---------------------------------------
    1    -153.8160503458      1.21e-04  
    2    -153.8160623119      1.59e-05  
    3    -153.8160623936      1.64e-05  
    4    -153.8160625138      5.33e-06  
    5    -153.8160625258      1.73e-06  
    6    -153.8160625273      4.57e-07  
    7    -153.8160625274      1.75e-07  
    8    -153.8160625274      1.53e-08  
    9    -153.8160625274      2.29e-09  Convergence criterion met
 ---------------------------------------
 SCF time:   CPU 3.77s  wall 1.00s 
 SCF   energy in the final basis set =     -153.8160625274
 Total energy in the final basis set =     -153.8160625274
 
 --------------------------------------------------------------
 
                    Orbital Energies (a.u.)
 --------------------------------------------------------------
 
 Alpha MOs
 -- Occupied --
-19.179 -10.242 -10.169  -1.056  -0.745  -0.616  -0.492  -0.476
 -0.385  -0.382  -0.364  -0.229
 -- Virtual --
  0.041   0.074   0.128   0.144   0.187   0.285   0.363   0.501
  0.545   0.602   0.621   0.638   0.675   0.764   0.836   0.853
  0.912   0.937   0.971   1.071   1.129   1.201   1.344   1.383
  1.511   1.548   1.590   1.731   1.877   1.885   1.934   2.049
  2.069   2.132   2.326   2.331   2.413   2.460   2.543   2.555
  2.628   2.656   2.720   2.813   2.881   3.130   3.252   3.404
  3.476   3.717   3.937   4.186   4.517
 --------------------------------------------------------------
 
          Ground-State Mulliken Net Atomic Charges

     Atom                 Charge (a.u.)
  ----------------------------------------
      1 C                    -0.298601
      2 C                     0.186631
      3 O                    -0.498322
      4 H                     0.082367
      5 H                     0.102326
      6 H                     0.109781
      7 H                     0.315818
  ----------------------------------------
  Sum of atomic charges =    -0.000000

 -----------------------------------------------------------------
                    Cartesian Multipole Moments
 -----------------------------------------------------------------
    Charge (ESU x 10^10)
                -0.0000
    Dipole Moment (Debye)
         X       0.3759      Y      -0.3622      Z      -0.8317
       Tot       0.9819
    Quadrupole Moments (Debye-Ang)
        XX     -15.3623     XY      -2.4873     YY     -18.9534
        XZ      -1.3385     YZ       0.3517     ZZ     -21.5495
    Octopole Moments (Debye-Ang^2)
       XXX      -8.2205    XXY      -3.0635    XYY      -3.8105
       YYY      -2.2761    XXZ     -19.0156    XYZ      -2.6052
       YYZ     -20.0973    XZZ     -11.5128    YZZ       0.8041
       ZZZ     -72.0800
    Hexadecapole Moments (Debye-Ang^3)
      XXXX     -61.9215   XXXY      -1.0391   XXYY     -15.1385
      XYYY       5.0999   YYYY     -24.5040   XXXZ     -31.3015
      XXYZ      -4.7318   XYYZ     -12.1917   YYYZ      -2.4993
      XXZZ     -55.4476   XYZZ      -2.1376   YYZZ     -44.0213
      XZZZ     -59.6326   YZZZ       2.5841   ZZZZ    -275.7030
 -----------------------------------------------------------------
 Calculating analytic gradient of the SCF energy
 Gradient of SCF Energy
            1           2           3           4           5           6
    1   0.0002718  -0.0000684  -0.0000465  -0.0001157  -0.0000272   0.0000047
    2  -0.0000914  -0.0002137   0.0000321   0.0001420   0.0000977   0.0000590
    3   0.0004805  -0.0002001  -0.0002586  -0.0000380   0.0000600  -0.0001302
            7
    1  -0.0000187
    2  -0.0000258
    3   0.0000864
 Max gradient component =       4.805E-04
 RMS gradient           =       1.620E-04
 Gradient time:  CPU 2.52 s  wall 0.32 s
 Geometry Optimization Parameters
   NAtoms,    NIC,     NZ,  NCons,   NDum,   NFix, NCnnct, MaxDiis
        7      33       7       0       0       0       0       0

 Cartesian Hessian Update
 Hessian Updated using BFGS Update


** GEOMETRY OPTIMIZATION IN DELOCALIZED INTERNAL COORDINATES **
   Searching for a Minimum

   Optimization Cycle:  16

                       Coordinates (Angstroms)
     ATOM                X               Y               Z
      1  C        -0.2312187717    0.0167628931    0.1097575966
      2  C         0.0039639870    0.2099417027    1.4078966905
      3  O         1.1271526909   -0.1251696337    2.1009487575
      4  H         0.4940734775   -0.4510987873   -0.5506697985
      5  H        -1.1719694848    0.3329628188   -0.3230134649
      6  H        -0.7194670626    0.6808977672    2.0672861107
      7  H         1.7540590411   -0.5455409293    1.4951297913
   Point Group: c1    Number of degrees of freedom:    15


   Energy is   -153.816062527

 Hessian Updated using BFGS Update

 15 Hessian modes will be used to form the next step
  Hessian Eigenvalues:
     0.015332    0.025796    0.034574    0.050985    0.149637    0.156526
     0.161320    0.199069    0.248342    0.346753    0.348244    0.348644
     0.443102    0.532946    0.689941

 Minimum Search - Taking Simple RFO Step
 Searching for Lamda that Minimizes Along All modes
 Value Taken    Lamda =  -0.00000202
 Step Taken.  Stepsize is  0.006031

                             Maximum     Tolerance    Cnvgd?
         Gradient           0.000371      0.000300      NO
         Displacement       0.003269      0.001200      NO
         Energy change     -0.000005      0.000001      NO


 New Cartesian Coordinates Obtained by Inverse Iteration

 Displacement from previous Coordinates is:  0.006463
 ----------------------------------------------------------------
             Standard Nuclear Orientation (Angstroms)
    I     Atom           X                Y                Z
 ----------------------------------------------------------------
    1      C      -0.2313224703     0.0176263242     0.1095042033
    2      C       0.0039587098     0.2106834881     1.4080550121
    3      O       1.1269066989    -0.1260130758     2.1009612425
    4      H       0.4941186004    -0.4525576509    -0.5493704521
    5      H      -1.1717258526     0.3332227035    -0.3242950950
    6      H      -0.7195085451     0.6803287065     2.0684565030
    7      H       1.7541667363    -0.5445346640     1.4940242695
 ----------------------------------------------------------------
 Nuclear Repulsion Energy =    70.1753083891 hartrees
 There are       12 alpha and       12 beta electrons
 Applying Cartesian multipole field
    Component          Value
    ---------          -----
     (2,0,0)        1.00000E-11
     (0,2,0)        2.00000E-10
     (0,0,2)       -3.00000E-11
 Nucleus-field energy     =    -0.0000000042 hartrees
 Requested basis set is 6-31G(d,p)
 There are 24 shells and 65 basis functions
 A cutoff of  1.0D-11 yielded    298 shell pairs
 There are      2234 function pairs
 Smallest overlap matrix eigenvalue = 4.82E-03
 Guess MOs from SCF MO coefficient file

 -----------------------------------------------------------------------
  General SCF calculation program by
  Eric Jon Sundstrom, Paul Horn, Yuezhi Mao, Dmitri Zuev, Alec White,
  David Stuck, Shaama M.S., Shane Yost, Joonho Lee, David Small,
  Daniel Levine, Susi Lehtola, Hugh Burton, Evgeny Epifanovsky
 -----------------------------------------------------------------------
 Exchange:     0.2000 Hartree-Fock + 0.0800 Slater + 0.7200 B88
 Correlation:  0.1900 VWN1RPA + 0.8100 LYP
 Using SG-1 standard quadrature grid
 using 8 threads for integral computing
 -------------------------------------------------------
 OpenMP Integral computing Module                
 Release: version 1.0, May 2013, Q-Chem Inc. Pittsburgh 
 -------------------------------------------------------
 -------------------------------------------------------
 OpenMP BLAS3 based DFT computing Module                
 Release: version 1.0, May 2013, Q-Chem Inc. Pittsburgh 
 -------------------------------------------------------
 A restricted SCF calculation will be
 performed using DIIS
 SCF converges when DIIS error is below 1.0e-08
 ---------------------------------------
  Cycle       Energy         DIIS error
 ---------------------------------------
    1    -153.8160617630      4.77e-05  
    2    -153.8160635717      6.52e-06  
    3    -153.8160635857      5.36e-06  
    4    -153.8160636008      1.07e-06  
    5    -153.8160636012      5.30e-07  
    6    -153.8160636013      9.59e-08  
    7    -153.8160636013      5.44e-08  
    8    -153.8160636013      7.10e-09  Convergence criterion met
 ---------------------------------------
 SCF time:   CPU 3.33s  wall 1.00s 
 SCF   energy in the final basis set =     -153.8160636013
 Total energy in the final basis set =     -153.8160636013
 
 --------------------------------------------------------------
 
                    Orbital Energies (a.u.)
 --------------------------------------------------------------
 
 Alpha MOs
 -- Occupied --
-19.179 -10.242 -10.169  -1.056  -0.745  -0.616  -0.492  -0.476
 -0.385  -0.382  -0.364  -0.229
 -- Virtual --
  0.041   0.074   0.128   0.144   0.187   0.285   0.363   0.501
  0.545   0.602   0.621   0.638   0.675   0.763   0.836   0.853
  0.912   0.937   0.971   1.071   1.129   1.201   1.344   1.383
  1.511   1.548   1.590   1.731   1.877   1.885   1.934   2.049
  2.068   2.132   2.326   2.331   2.413   2.460   2.542   2.555
  2.628   2.655   2.720   2.812   2.880   3.129   3.252   3.404
  3.476   3.717   3.936   4.186   4.517
 --------------------------------------------------------------
 
          Ground-State Mulliken Net Atomic Charges

     Atom                 Charge (a.u.)
  ----------------------------------------
      1 C                    -0.298693
      2 C                     0.186657
      3 O                    -0.498310
      4 H                     0.082296
      5 H                     0.102421
      6 H                     0.109801
      7 H                     0.315829
  ----------------------------------------
  Sum of atomic charges =    -0.000000

 -----------------------------------------------------------------
                    Cartesian Multipole Moments
 -----------------------------------------------------------------
    Charge (ESU x 10^10)
                -0.0000
    Dipole Moment (Debye)
         X       0.3751      Y      -0.3610      Z      -0.8319
       Tot       0.9814
    Quadrupole Moments (Debye-Ang)
        XX     -15.3612     XY      -2.4816     YY     -18.9576
        XZ      -1.3396     YZ       0.3592     ZZ     -21.5511
    Octopole Moments (Debye-Ang^2)
       XXX      -8.2147    XXY      -3.0584    XYY      -3.8141
       YYY      -2.2892    XXZ     -19.0199    XYZ      -2.5917
       YYZ     -20.1063    XZZ     -11.5253    YZZ       0.8164
       ZZZ     -72.0731
    Hexadecapole Moments (Debye-Ang^3)
      XXXX     -61.8996   XXXY      -1.0075   XXYY     -15.1467
      XYYY       5.1223   YYYY     -24.5287   XXXZ     -31.2986
      XXYZ      -4.7109   XYYZ     -12.1976   YYYZ      -2.4888
      XXZZ     -55.4587   XYZZ      -2.1080   YYZZ     -44.0441
      XZZZ     -59.6526   YZZZ       2.6244   ZZZZ    -275.6966
 -----------------------------------------------------------------
 Calculating analytic gradient of the SCF energy
 Gradient of SCF Energy
            1           2           3           4           5           6
    1   0.0000099   0.0001034  -0.0000774  -0.0000430  -0.0000047  -0.0000304
    2   0.0000160   0.0000000  -0.0000007   0.0000123   0.0000440  -0.0000219
    3   0.0000320   0.0000670  -0.0000680  -0.0000138   0.0000237  -0.0000255
            7
    1   0.0000421
    2  -0.0000497
    3  -0.0000155
 Max gradient component =       1.034E-04
 RMS gradient           =       4.278E-05
 Gradient time:  CPU 2.50 s  wall 0.31 s
 Geometry Optimization Parameters
   NAtoms,    NIC,     NZ,  NCons,   NDum,   NFix, NCnnct, MaxDiis
        7      33       7       0       0       0       0       0

 Cartesian Hessian Update
 Hessian Updated using BFGS Update


** GEOMETRY OPTIMIZATION IN DELOCALIZED INTERNAL COORDINATES **
   Searching for a Minimum

   Optimization Cycle:  17

                       Coordinates (Angstroms)
     ATOM                X               Y               Z
      1  C        -0.2313224703    0.0176263242    0.1095042033
      2  C         0.0039587098    0.2106834881    1.4080550121
      3  O         1.1269066989   -0.1260130758    2.1009612425
      4  H         0.4941186004   -0.4525576509   -0.5493704521
      5  H        -1.1717258526    0.3332227035   -0.3242950950
      6  H        -0.7195085451    0.6803287065    2.0684565030
      7  H         1.7541667363   -0.5445346640    1.4940242695
   Point Group: c1    Number of degrees of freedom:    15


   Energy is   -153.816063601

 Hessian Updated using BFGS Update

 15 Hessian modes will be used to form the next step
  Hessian Eigenvalues:
     0.015861    0.027191    0.035922    0.051723    0.128984    0.157485
     0.159851    0.192061    0.248357    0.346508    0.348273    0.348301
     0.442585    0.530335    0.682639

 Minimum Search - Taking Simple RFO Step
 Searching for Lamda that Minimizes Along All modes
 Value Taken    Lamda =   0.00000000
 Step Taken.  Stepsize is  0.001297

                             Maximum     Tolerance    Cnvgd?
         Gradient           0.000080      0.000300     YES
         Displacement       0.000879      0.001200     YES
         Energy change     -0.000001      0.000001      NO


                       Distance Matrix (Angstroms)
             C (  1)   C (  2)   O (  3)   H (  4)   H (  5)   H (  6)
   C (  2)  1.333740
   O (  3)  2.414813  1.361799
   H (  4)  1.086947  2.124067  2.744323
   H (  5)  1.082655  2.097209  3.372903  1.855572
   H (  6)  2.124852  1.086325  2.015066  3.099894  2.459724
   H (  7)  2.484972  1.908133  0.967981  2.402424  3.554939  2.819456

 
 Final energy is   -153.816063601311     


 ******************************
 **  OPTIMIZATION CONVERGED  **
 ******************************

                       Coordinates (Angstroms)
     ATOM                X               Y               Z
      1  C        -0.2313224703    0.0176263242    0.1095042033
      2  C         0.0039587098    0.2106834881    1.4080550121
      3  O         1.1269066989   -0.1260130758    2.1009612425
      4  H         0.4941186004   -0.4525576509   -0.5493704521
      5  H        -1.1717258526    0.3332227035   -0.3242950950
      6  H        -0.7195085451    0.6803287065    2.0684565030
      7  H         1.7541667363   -0.5445346640    1.4940242695

Z-matrix Print:
$molecule
0 1
C 
H  1 1.086325
C  1 1.333740 2 122.478205
H  3 1.082655 1 120.075695 2 0.021751 0
H  3 1.086947 1 122.347655 2 -179.998993 0
O  1 1.361799 2 110.287879 3 -179.988849 0
H  6 0.967981 1 108.797037 2 179.804799 0
$end

 
 --------------------------------------------------------------
 
                    Orbital Energies (a.u.)
 --------------------------------------------------------------
 
 Alpha MOs
 -- Occupied --
-19.179 -10.242 -10.169  -1.056  -0.745  -0.616  -0.492  -0.476
 -0.385  -0.382  -0.364  -0.229
 -- Virtual --
  0.041   0.074   0.128   0.144   0.187   0.285   0.363   0.501
  0.545   0.602   0.621   0.638   0.675   0.763   0.836   0.853
  0.912   0.937   0.971   1.071   1.129   1.201   1.344   1.383
  1.511   1.548   1.590   1.731   1.877   1.885   1.934   2.049
  2.068   2.132   2.326   2.331   2.413   2.460   2.542   2.555
  2.628   2.655   2.720   2.812   2.880   3.129   3.252   3.404
  3.476   3.717   3.936   4.186   4.517
 --------------------------------------------------------------
 
          Ground-State Mulliken Net Atomic Charges

     Atom                 Charge (a.u.)
  ----------------------------------------
      1 C                    -0.298693
      2 C                     0.186657
      3 O                    -0.498310
      4 H                     0.082296
      5 H                     0.102421
      6 H                     0.109801
      7 H                     0.315829
  ----------------------------------------
  Sum of atomic charges =    -0.000000

 -----------------------------------------------------------------
                    Cartesian Multipole Moments
 -----------------------------------------------------------------
    Charge (ESU x 10^10)
                -0.0000
    Dipole Moment (Debye)
         X       0.3751      Y      -0.3610      Z      -0.8319
       Tot       0.9814
    Quadrupole Moments (Debye-Ang)
        XX     -15.3612     XY      -2.4816     YY     -18.9576
        XZ      -1.3396     YZ       0.3592     ZZ     -21.5511
    Octopole Moments (Debye-Ang^2)
       XXX      -8.2147    XXY      -3.0584    XYY      -3.8141
       YYY      -2.2892    XXZ     -19.0199    XYZ      -2.5917
       YYZ     -20.1063    XZZ     -11.5253    YZZ       0.8164
       ZZZ     -72.0731
    Hexadecapole Moments (Debye-Ang^3)
      XXXX     -61.8996   XXXY      -1.0075   XXYY     -15.1467
      XYYY       5.1223   YYYY     -24.5287   XXXZ     -31.2986
      XXYZ      -4.7109   XYYZ     -12.1976   YYYZ      -2.4888
      XXZZ     -55.4587   XYZZ      -2.1080   YYZZ     -44.0441
      XZZZ     -59.6526   YZZZ       2.6244   ZZZZ    -275.6966
 -----------------------------------------------------------------
Archival summary:
1\1\node1\OPT\ProcedureUnspecified\6-31G**\124\songzl\ThuApr616:02:252023ThuApr616:02:252023\0\\#,OPT,ProcedureUnspecified,6-31G**,\\0,1\C\H,1,1.08632\C,1,1.33374,2,122.478\H,3,1.08265,1,120.076,2,0.0217512,0\H,3,1.08695,1,122.348,2,-179.999,0\O,1,1.3618,2,110.288,3,-179.989,0\H,6,0.967981,1,108.797,2,179.805,0\\\@

 Total job time:  15.73s(wall), 124.03s(cpu) 
 Thu Apr  6 16:02:25 2023

        *************************************************************
        *                                                           *
        *  Thank you very much for using Q-Chem.  Have a nice day.  *
        *                                                           *
        *************************************************************


