
Running Job 1 of 1 baker_set_reactant.inp
qchem baker_set_reactant.inp_30903.0 /tmp/songzl/qchem_baker_set/qchem30903/ 1
/apps/apps/qchem/qc51/exe/qcprog.exe_s baker_set_reactant.inp_30903.0 /tmp/songzl/qchem_baker_set/qchem30903/
Check license passed

                  Welcome to Q-Chem
     A Quantum Leap Into The Future Of Chemistry


 Q-Chem 5.1, Q-Chem, Inc., Pleasanton, CA (2018)

 Yihan Shao,  Zhengting Gan,  E. Epifanovsky,  A. T. B. Gilbert,  M. Wormit,  
 J. Kussmann,  A. W. Lange,  A. Behn,  Jia Deng,  Xintian Feng,  D. Ghosh,  
 M. Goldey,  P. R. Horn,  L. D. Jacobson,  I. Kaliman,  T. Kus,  A. Landau,  
 Jie Liu,  E. I. Proynov,  R. M. Richard,  R. P. Steele,  E. J. Sundstrom,  
 H. L. Woodcock III,  P. M. Zimmerman,  D. Zuev,  B. Albrecht,  E. Alguire,  
 S. A. Baeppler,  D. Barton,  Z. Benda,  Y. A. Bernard,  E. J. Berquist,  
 K. B. Bravaya,  H. Burton,  D. Casanova,  Chun-Min Chang,  Yunqing Chen,  
 A. Chien,  K. D. Closser,  M. P. Coons,  S. Coriani,  S. Dasgupta,  
 A. L. Dempwolff,  M. Diedenhofen,  Hainam Do,  R. G. Edgar,  Po-Tung Fang,  
 S. Faraji,  S. Fatehi,  Qingguo Feng,  K. D. Fenk,  J. Fosso-Tande,  
 Qinghui Ge,  A. Ghysels,  G. Gidofalvi,  J. Gomes,  J. Gonthier,  A. Gunina,  
 D. Hait,  M. W. D. Hanson-Heine,  P. H. P. Harbach,  A. W. Hauser,  
 J. E. Herr,  E. G. Hohenstein,  Z. C. Holden,  Kerwin Hui,  B. C. Huynh,  
 T.-C. Jagau,  Hyunjun Ji,  B. Kaduk,  K. Khistyaev,  Jaehoon Kim,  
 P. Klunzinger,  K. Koh,  D. Kosenkov,  L. Koulias,  T. Kowalczyk,  
 C. M. Krauter,  A. Kunitsa,  Ka Un Lao,  A. Laurent,  K. V. Lawler,  
 Joonho Lee,  D. Lefrancois,  S. Lehtola,  D. S. Levine,  Yi-Pei Li,  
 You-Sheng Lin,  Fenglai Liu,  E. Livshits,  A. Luenser,  P. Manohar,  
 E. Mansoor,  S. F. Manzer,  Shan-Ping Mao,  Yuezhi Mao,  N. Mardirossian,  
 A. V. Marenich,  T. Markovich,  L. A. Martinez-Martinez,  S. A. Maurer,  
 N. J. Mayhall,  S. C. McKenzie,  J.-M. Mewes,  A. F. Morrison,  
 J. W. Mullinax,  K. Nanda,  T. S. Nguyen-Beck,  R. Olivares-Amaya,  
 J. A. Parkhill,  T. M. Perrine,  F. Plasser,  P. Pokhilko,  S. Prager,  
 A. Prociuk,  E. Ramos,  D. R. Rehn,  F. Rob,  M. Schneider,  N. Sergueev,  
 S. M. Sharada,  S. Sharma,  D. W. Small,  T. Stauch,  T. Stein,  
 Yu-Chuan Su,  A. J. W. Thom,  A. Tkatchenko,  T. Tsuchimochi,  N. M. Tubman,  
 L. Vogt,  M. L. Vidal,  O. Vydrov,  M. A. Watson,  J. Wenzel,  
 M. de Wergifosse,  T. A. Wesolowski,  A. White,  J. Witte,  A. Yamada,  
 Jun Yang,  K. Yao,  S. Yeganeh,  S. R. Yost,  Zhi-Qiang You,  A. Zech,  
 Igor Ying Zhang,  Xing Zhang,  Yan Zhao,  Ying Zhu,  B. R. Brooks,  
 G. K. L. Chan,  C. J. Cramer,  M. S. Gordon,  W. J. Hehre,  A. Klamt,  
 M. W. Schmidt,  C. D. Sherrill,  D. G. Truhlar,  A. Aspuru-Guzik,  R. Baer,  
 A. T. Bell,  N. A. Besley,  Jeng-Da Chai,  A. E. DePrince, III,  
 R. A. DiStasio Jr.,  A. Dreuw,  B. D. Dunietz,  T. R. Furlani,  
 Chao-Ping Hsu,  Yousung Jung,  Jing Kong,  D. S. Lambrecht,  WanZhen Liang,  
 C. Ochsenfeld,  V. A. Rassolov,  L. V. Slipchenko,  J. E. Subotnik,  
 T. Van Voorhis,  J. M. Herbert,  A. I. Krylov,  P. M. W. Gill,  M. Head-Gordon

 Contributors to earlier versions of Q-Chem not listed above: 
 R. D. Adamson,  B. Austin,  J. Baker,  G. J. O. Beran,  K. Brandhorst,  
 S. T. Brown,  E. F. C. Byrd,  A. K. Chakraborty,  C.-L. Cheng,  
 Siu Hung Chien,  D. M. Chipman,  D. L. Crittenden,  H. Dachsel,  
 R. J. Doerksen,  A. D. Dutoi,  L. Fusti-Molnar,  W. A. Goddard III,  
 A. Golubeva-Zadorozhnaya,  S. R. Gwaltney,  G. Hawkins,  A. Heyden,  
 S. Hirata,  G. Kedziora,  F. J. Keil,  C. Kelley,  Jihan Kim,  R. A. King,  
 R. Z. Khaliullin,  P. P. Korambath,  W. Kurlancheek,  A. M. Lee,  M. S. Lee,  
 S. V. Levchenko,  Ching Yeh Lin,  D. Liotard,  R. C. Lochan,  I. Lotan,  
 P. E. Maslen,  N. Nair,  D. P. O'Neill,  D. Neuhauser,  E. Neuscamman,  
 C. M. Oana,  R. Olson,  B. Peters,  R. Peverati,  P. A. Pieniazek,  
 Y. M. Rhee,  J. Ritchie,  M. A. Rohrdanz,  E. Rosta,  N. J. Russ,  
 H. F. Schaefer III,  N. E. Schultz,  N. Shenvi,  A. C. Simmonett,  A. Sodt,  
 D. Stuck,  K. S. Thanthiriwatte,  V. Vanovschi,  Tao Wang,  A. Warshel,  
 C. F. Williams,  Q. Wu,  X. Xu,  W. Zhang

 Please cite Q-Chem as follows:
 Y. Shao et al., Mol. Phys. 113, 184-215 (2015)
 DOI: 10.1080/00268976.2014.952696

 Q-Chem 5.1.1 for Intel X86 EM64T Linux

 Parts of Q-Chem use Armadillo 8.300.2 (Tropical Shenanigans).
 http://arma.sourceforge.net/

 Q-Chem begins on Thu Apr  6 13:56:53 2023  

Host: 
0

     Scratch files written to /tmp/songzl/qchem_baker_set/qchem30903//
 Aug318 |scratch|qcdevops|jenkins|workspace|build_RNUM 6609   
Processing $rem in /apps/apps/qchem/qc51/config/preferences.
 MEM_TOTAL  1000 
The previous job contains 0 fragments, simply inherited here
Input Ideriv = 2
Curr. Ideriv = -1
Max.  Ideriv = 2

Checking the input file for inconsistencies... 	...done.

--------------------------------------------------------------
User input:
--------------------------------------------------------------
$molecule
READ ./zmat.inp
$end

$rem
mem_total               230000
mem_static              2048
job_type                optimization
basis                   6-31g**
method                  b3lyp
symmetry                false
sym_ignore              true
geom_opt_max_cycles     500
$end
--------------------------------------------------------------
 ----------------------------------------------------------------
             Standard Nuclear Orientation (Angstroms)
    I     Atom           X                Y                Z
 ----------------------------------------------------------------
    1      C       0.0000000000     0.0000000000     0.0000000000
    2      N      -1.1800000000     0.0000000000     0.0000000000
    3      H       1.0000000000     0.0000000000     0.0000000000
    4      H      -4.1800000000    -0.5000000000     0.0000000000
    5      H      -4.1800000000     0.5000000000     0.0000000000
 ----------------------------------------------------------------
 Nuclear Repulsion Energy =    28.3862341952 hartrees
 There are        8 alpha and        8 beta electrons
 Requested basis set is 6-31G(d,p)
 There are 17 shells and 45 basis functions

 Total QAlloc Memory Limit 230000 MB
 Mega-Array Size      2002 MB
 MEM_STATIC part      2048 MB
 A cutoff of  1.0D-11 yielded    137 shell pairs
 There are      1016 function pairs
 
 -------------------------------------------------------
 OpenMP Integral Computing Module                       
 Release: version 1.0, May 2013, Q-Chem Inc. Pittsburgh 
 -------------------------------------------------------
 Integral Job Info:
 Integral job number is                      11
 Integral operator is                         1
 short-range coefficients                     0
 long-range coefficients              100000000
 Omega coefficients                           0
 if combine SR and LR in K                    0
 Integral screening is                        0
 Integral computing path is                   2
 max size of driver memory is            800000
 size of driver memory is                593474
 size of scratch memory is              2361544
 max col of scratch BK array               1296
 max len of scratch array in speh3          155
 max len of scratch index in speh4           18
 max int batch size is                      520
 min int batch size is                       52
 fixed nKL is                                52
 max L of basis functions is                  2
 order of int derivative is                   0
 number of shells is                         17
 number of basis is                          45
 number of cartesian basis is                45
 number of contracted shell pairs           137
 number of primitive shell pairs            539
 maxK2 (contraction) of shell pair           36
 max number of K2 of shell pair               1
 max number of CS2 of shell pair             12
 max number of PS2 of shell pair             72
 mem total for path MDJ                  509160
 -------------------------------------------------------
 Smallest overlap matrix eigenvalue = 3.04E-03

 Scale SEOQF with 1.000000e-01/1.000000e+00/1.000000e+00

 Standard Electronic Orientation quadrupole field applied
 Nucleus-field energy     =     0.0000000020 hartrees
 Guess from superposition of atomic densities
 Warning:  Energy on first SCF cycle will be non-variational
 SAD guess density has 16.000000 electrons

 -----------------------------------------------------------------------
  General SCF calculation program by
  Eric Jon Sundstrom, Paul Horn, Yuezhi Mao, Dmitri Zuev, Alec White,
  David Stuck, Shaama M.S., Shane Yost, Joonho Lee, David Small,
  Daniel Levine, Susi Lehtola, Hugh Burton, Evgeny Epifanovsky
 -----------------------------------------------------------------------
 Exchange:     0.2000 Hartree-Fock + 0.0800 Slater + 0.7200 B88
 Correlation:  0.1900 VWN1RPA + 0.8100 LYP
 Using SG-1 standard quadrature grid
 using 8 threads for integral computing
 -------------------------------------------------------
 OpenMP Integral computing Module                
 Release: version 1.0, May 2013, Q-Chem Inc. Pittsburgh 
 -------------------------------------------------------
 -------------------------------------------------------
 OpenMP BLAS3 based DFT computing Module                
 Release: version 1.0, May 2013, Q-Chem Inc. Pittsburgh 
 -------------------------------------------------------
 A restricted SCF calculation will be
 performed using DIIS
 SCF converges when DIIS error is below 1.0e-08
 ---------------------------------------
  Cycle       Energy         DIIS error
 ---------------------------------------
    1     -94.5248641982      9.20e-02  
    2     -94.5291922717      1.23e-02  
    3     -94.3863091002      2.76e-02  
    4     -94.5664650713      3.21e-03  
    5     -94.5689986206      4.76e-04  
    6     -94.5690502800      3.68e-05  
    7     -94.5690505499      8.23e-06  
    8     -94.5690505638      1.45e-06  
    9     -94.5690505643      4.09e-08  
   10     -94.5690505643      2.41e-09  Convergence criterion met
 ---------------------------------------
 SCF time:   CPU 3.08s  wall 0.00s 
 SCF   energy in the final basis set =      -94.5690505643
 Total energy in the final basis set =      -94.5690505643
 
 --------------------------------------------------------------
 
                    Orbital Energies (a.u.)
 --------------------------------------------------------------
 
 Alpha MOs
 -- Occupied --
-14.366 -10.246  -0.912  -0.629  -0.388  -0.358  -0.355  -0.355
 -- Virtual --
  0.008   0.010   0.050   0.106   0.272   0.522   0.522   0.579
  0.668   0.760   0.767   0.798   0.825   0.916   1.112   1.420
  1.421   1.425   1.513   1.513   1.774   1.786   1.936   1.936
  1.947   2.121   2.121   2.376   2.378   2.454   2.890   2.893
  2.893   3.396   3.632   3.836   4.798
 --------------------------------------------------------------
 
          Ground-State Mulliken Net Atomic Charges

     Atom                 Charge (a.u.)
  ----------------------------------------
      1 C                     0.174803
      2 N                    -0.371191
      3 H                     0.196772
      4 H                    -0.000192
      5 H                    -0.000192
  ----------------------------------------
  Sum of atomic charges =     0.000000

 -----------------------------------------------------------------
                    Cartesian Multipole Moments
 -----------------------------------------------------------------
    Charge (ESU x 10^10)
                -0.0000
    Dipole Moment (Debye)
         X       2.8102      Y      -0.0000      Z      -0.0000
       Tot       2.8102
    Quadrupole Moments (Debye-Ang)
        XX     -15.0870     XY       0.0000     YY     -12.8754
        XZ       0.0000     YZ       0.0000     ZZ     -13.6968
    Octopole Moments (Debye-Ang^2)
       XXX      53.7631    XXY      -0.0000    XYY      12.3705
       YYY      -0.0000    XXZ      -0.0000    XYZ       0.0000
       YYZ      -0.0000    XZZ      15.8011    YZZ      -0.0000
       ZZZ      -0.0000
    Hexadecapole Moments (Debye-Ang^3)
      XXXX    -316.9412   XXXY       0.0000   XXYY     -39.1832
      XYYY       0.0000   YYYY     -14.5348   XXXZ      -0.0000
      XXYZ      -0.0000   XYYZ       0.0000   YYYZ       0.0000
      XXZZ     -53.1612   XYZZ       0.0000   YYZZ      -4.5687
      XZZZ       0.0000   YZZZ       0.0000   ZZZZ     -12.6271
 -----------------------------------------------------------------
 Calculating analytic gradient of the SCF energy
 Gradient of SCF Energy
            1           2           3           4           5
    1   0.1193134  -0.0554157  -0.0657812   0.0009418   0.0009418
    2   0.0000000  -0.0000000   0.0000000  -0.0892776   0.0892776
    3   0.0000000  -0.0000000   0.0000000  -0.0000000  -0.0000000
 Max gradient component =       1.193E-01
 RMS gradient           =       5.005E-02
 Gradient time:  CPU 2.24 s  wall 0.28 s
 Geometry Optimization Parameters
   NAtoms,    NIC,     NZ,  NCons,   NDum,   NFix, NCnnct, MaxDiis
        5      25       0       0       0       0       0       0


** GEOMETRY OPTIMIZATION IN DELOCALIZED INTERNAL COORDINATES **
   Searching for a Minimum

   Optimization Cycle:   1

                       Coordinates (Angstroms)
     ATOM                X               Y               Z
      1  C         0.0000000000    0.0000000000    0.0000000000
      2  N        -1.1800000000    0.0000000000    0.0000000000
      3  H         1.0000000000    0.0000000000    0.0000000000
      4  H        -4.1800000000   -0.5000000000    0.0000000000
      5  H        -4.1800000000    0.5000000000    0.0000000000
   Point Group: c1    Number of degrees of freedom:     9


   Energy is    -94.569050564


 Attempting to Generate Delocalized Internal Coordinates

  4 Hessian modes will be used to form the next step
  Hessian Eigenvalues:
     0.011682    0.178318    0.476883    1.155508

 Minimum Search - Taking Simple RFO Step
 Searching for Lamda that Minimizes Along All modes
 Value Taken    Lamda =  -0.04406709
 Calculated Step too Large.  Step scaled by  0.731919
 Step Taken.  Stepsize is  0.300000

                             Maximum     Tolerance    Cnvgd?
         Gradient           0.100006      0.000300      NO
         Displacement       0.215714      0.001200      NO
         Energy change     *********      0.000001      NO


 New Cartesian Coordinates Obtained by Inverse Iteration

 Displacement from previous Coordinates is:  0.206647
 ----------------------------------------------------------------
             Standard Nuclear Orientation (Angstroms)
    I     Atom           X                Y                Z
 ----------------------------------------------------------------
    1      C      -0.0159553524     0.0000000000     0.0000000000
    2      N      -1.1786710459     0.0000000000     0.0000000000
    3      H       1.0329515040     0.0000000000     0.0000000000
    4      H      -4.1891625529    -0.4277227840     0.0000000000
    5      H      -4.1891625529     0.4277227840     0.0000000000
 ----------------------------------------------------------------
 Nuclear Repulsion Energy =    28.5877536067 hartrees
 There are        8 alpha and        8 beta electrons
 Applying Cartesian multipole field
    Component          Value
    ---------          -----
     (2,0,0)        1.00000E-11
     (0,2,0)        2.00000E-10
     (0,0,2)       -3.00000E-10
 Nucleus-field energy     =     0.0000000019 hartrees
 Requested basis set is 6-31G(d,p)
 There are 17 shells and 45 basis functions
 A cutoff of  1.0D-11 yielded    137 shell pairs
 There are      1016 function pairs
 Smallest overlap matrix eigenvalue = 2.96E-03
 Guess MOs from SCF MO coefficient file

 -----------------------------------------------------------------------
  General SCF calculation program by
  Eric Jon Sundstrom, Paul Horn, Yuezhi Mao, Dmitri Zuev, Alec White,
  David Stuck, Shaama M.S., Shane Yost, Joonho Lee, David Small,
  Daniel Levine, Susi Lehtola, Hugh Burton, Evgeny Epifanovsky
 -----------------------------------------------------------------------
 Exchange:     0.2000 Hartree-Fock + 0.0800 Slater + 0.7200 B88
 Correlation:  0.1900 VWN1RPA + 0.8100 LYP
 Using SG-1 standard quadrature grid
 using 8 threads for integral computing
 -------------------------------------------------------
 OpenMP Integral computing Module                
 Release: version 1.0, May 2013, Q-Chem Inc. Pittsburgh 
 -------------------------------------------------------
 -------------------------------------------------------
 OpenMP BLAS3 based DFT computing Module                
 Release: version 1.0, May 2013, Q-Chem Inc. Pittsburgh 
 -------------------------------------------------------
 A restricted SCF calculation will be
 performed using DIIS
 SCF converges when DIIS error is below 1.0e-08
 ---------------------------------------
  Cycle       Energy         DIIS error
 ---------------------------------------
    1     -94.5925155001      2.43e-03  
    2     -94.5943398753      1.39e-03  
    3     -94.5939263726      1.98e-03  
    4     -94.5947944634      7.16e-05  
    5     -94.5947955894      2.82e-05  
    6     -94.5947957932      1.93e-06  
    7     -94.5947957942      2.49e-07  
    8     -94.5947957942      4.33e-08  
    9     -94.5947957942      1.32e-09  Convergence criterion met
 ---------------------------------------
 SCF time:   CPU 2.71s  wall 1.00s 
 SCF   energy in the final basis set =      -94.5947957942
 Total energy in the final basis set =      -94.5947957942
 
 --------------------------------------------------------------
 
                    Orbital Energies (a.u.)
 --------------------------------------------------------------
 
 Alpha MOs
 -- Occupied --
-14.361 -10.245  -0.917  -0.613  -0.395  -0.372  -0.358  -0.358
 -- Virtual --
  0.016   0.017   0.090   0.090   0.277   0.521   0.521   0.558
  0.681   0.767   0.770   0.772   0.809   0.986   1.090   1.433
  1.433   1.434   1.508   1.508   1.719   1.733   1.946   1.946
  2.114   2.114   2.193   2.420   2.517   2.518   2.858   2.858
  2.887   3.551   3.753   3.847   4.729
 --------------------------------------------------------------
 
          Ground-State Mulliken Net Atomic Charges

     Atom                 Charge (a.u.)
  ----------------------------------------
      1 C                     0.164054
      2 N                    -0.369370
      3 H                     0.206061
      4 H                    -0.000372
      5 H                    -0.000372
  ----------------------------------------
  Sum of atomic charges =    -0.000000

 -----------------------------------------------------------------
                    Cartesian Multipole Moments
 -----------------------------------------------------------------
    Charge (ESU x 10^10)
                -0.0000
    Dipole Moment (Debye)
         X       2.8759      Y      -0.0000      Z       0.0000
       Tot       2.8759
    Quadrupole Moments (Debye-Ang)
        XX     -14.9243     XY       0.0000     YY     -12.8961
        XZ      -0.0000     YZ      -0.0000     ZZ     -13.5438
    Octopole Moments (Debye-Ang^2)
       XXX      52.3044    XXY      -0.0000    XYY      12.4588
       YYY      -0.0000    XXZ      -0.0000    XYZ       0.0000
       YYZ       0.0000    XZZ      15.1700    YZZ      -0.0000
       ZZZ       0.0000
    Hexadecapole Moments (Debye-Ang^3)
      XXXX    -302.0817   XXXY       0.0000   XXYY     -39.4840
      XYYY       0.0000   YYYY     -13.6494   XXXZ       0.0000
      XXYZ      -0.0000   XYYZ      -0.0000   YYYZ      -0.0000
      XXZZ     -50.6032   XYZZ       0.0000   YYZZ      -4.3603
      XZZZ      -0.0000   YZZZ       0.0000   ZZZZ     -12.3666
 -----------------------------------------------------------------
 Calculating analytic gradient of the SCF energy
 Gradient of SCF Energy
            1           2           3           4           5
    1   0.0301916  -0.0151038  -0.0166712   0.0007917   0.0007917
    2   0.0000000   0.0000000   0.0000000  -0.0582927   0.0582927
    3   0.0000000  -0.0000000  -0.0000000  -0.0000000   0.0000000
 Max gradient component =       5.829E-02
 RMS gradient           =       2.340E-02
 Gradient time:  CPU 2.08 s  wall 0.26 s
 Geometry Optimization Parameters
   NAtoms,    NIC,     NZ,  NCons,   NDum,   NFix, NCnnct, MaxDiis
        5      25       0       0       0       0       0       0

 Cartesian Hessian Update
 Hessian Updated using BFGS Update


** GEOMETRY OPTIMIZATION IN DELOCALIZED INTERNAL COORDINATES **
   Searching for a Minimum

   Optimization Cycle:   2

                       Coordinates (Angstroms)
     ATOM                X               Y               Z
      1  C        -0.0159553524    0.0000000000    0.0000000000
      2  N        -1.1786710459    0.0000000000    0.0000000000
      3  H         1.0329515040    0.0000000000    0.0000000000
      4  H        -4.1891625529   -0.4277227840    0.0000000000
      5  H        -4.1891625529    0.4277227840    0.0000000000
   Point Group: c1    Number of degrees of freedom:     9


   Energy is    -94.594795794

 Hessian Updated using BFGS Update

  4 Hessian modes will be used to form the next step
  Hessian Eigenvalues:
     0.011682    0.110104    0.542436    1.199233

 Minimum Search - Taking Simple RFO Step
 Searching for Lamda that Minimizes Along All modes
 Value Taken    Lamda =  -0.02450633
 Calculated Step too Large.  Step scaled by  0.708301
 Step Taken.  Stepsize is  0.300000

                             Maximum     Tolerance    Cnvgd?
         Gradient           0.043361      0.000300      NO
         Displacement       0.259136      0.001200      NO
         Energy change     -0.025745      0.000001      NO


 New Cartesian Coordinates Obtained by Inverse Iteration

 Displacement from previous Coordinates is:  0.206745
 ----------------------------------------------------------------
             Standard Nuclear Orientation (Angstroms)
    I     Atom           X                Y                Z
 ----------------------------------------------------------------
    1      C      -0.0157611205     0.0000000000     0.0000000000
    2      N      -1.1731263730     0.0000000000     0.0000000000
    3      H       1.0466522497     0.0000000000     0.0000000000
    4      H      -4.1988823782    -0.3516901889     0.0000000000
    5      H      -4.1988823782     0.3516901889     0.0000000000
 ----------------------------------------------------------------
 Nuclear Repulsion Energy =    28.7592068898 hartrees
 There are        8 alpha and        8 beta electrons
 Applying Cartesian multipole field
    Component          Value
    ---------          -----
     (2,0,0)        1.00000E-11
     (0,2,0)        2.00000E-10
     (0,0,2)       -3.00000E-10
 Nucleus-field energy     =     0.0000000018 hartrees
 Requested basis set is 6-31G(d,p)
 There are 17 shells and 45 basis functions
 A cutoff of  1.0D-11 yielded    137 shell pairs
 There are      1016 function pairs
 Smallest overlap matrix eigenvalue = 2.93E-03
 Guess MOs from SCF MO coefficient file

 -----------------------------------------------------------------------
  General SCF calculation program by
  Eric Jon Sundstrom, Paul Horn, Yuezhi Mao, Dmitri Zuev, Alec White,
  David Stuck, Shaama M.S., Shane Yost, Joonho Lee, David Small,
  Daniel Levine, Susi Lehtola, Hugh Burton, Evgeny Epifanovsky
 -----------------------------------------------------------------------
 Exchange:     0.2000 Hartree-Fock + 0.0800 Slater + 0.7200 B88
 Correlation:  0.1900 VWN1RPA + 0.8100 LYP
 Using SG-1 standard quadrature grid
 using 8 threads for integral computing
 -------------------------------------------------------
 OpenMP Integral computing Module                
 Release: version 1.0, May 2013, Q-Chem Inc. Pittsburgh 
 -------------------------------------------------------
 -------------------------------------------------------
 OpenMP BLAS3 based DFT computing Module                
 Release: version 1.0, May 2013, Q-Chem Inc. Pittsburgh 
 -------------------------------------------------------
 A restricted SCF calculation will be
 performed using DIIS
 SCF converges when DIIS error is below 1.0e-08
 ---------------------------------------
  Cycle       Energy         DIIS error
 ---------------------------------------
    1     -94.5982622306      2.62e-03  
    2     -94.6009889521      6.69e-04  
    3     -94.6009989646      7.70e-04  
    4     -94.6011295762      6.59e-05  
    5     -94.6011304993      1.25e-05  
    6     -94.6011305394      6.77e-07  
    7     -94.6011305395      8.82e-08  
    8     -94.6011305395      1.62e-08  
    9     -94.6011305395      3.95e-10  Convergence criterion met
 ---------------------------------------
 SCF time:   CPU 2.70s  wall 0.00s 
 SCF   energy in the final basis set =      -94.6011305395
 Total energy in the final basis set =      -94.6011305395
 
 --------------------------------------------------------------
 
                    Orbital Energies (a.u.)
 --------------------------------------------------------------
 
 Alpha MOs
 -- Occupied --
-14.360 -10.245  -0.920  -0.609  -0.420  -0.378  -0.359  -0.359
 -- Virtual --
  0.019   0.019   0.085   0.133   0.277   0.520   0.520   0.529
  0.683   0.746   0.770   0.771   0.804   1.086   1.098   1.437
  1.437   1.438   1.507   1.507   1.695   1.709   1.949   1.949
  2.112   2.112   2.399   2.491   2.682   2.683   2.849   2.849
  2.888   3.533   3.851   4.392   4.712
 --------------------------------------------------------------
 
          Ground-State Mulliken Net Atomic Charges

     Atom                 Charge (a.u.)
  ----------------------------------------
      1 C                     0.161916
      2 N                    -0.368905
      3 H                     0.208010
      4 H                    -0.000511
      5 H                    -0.000511
  ----------------------------------------
  Sum of atomic charges =     0.000000

 -----------------------------------------------------------------
                    Cartesian Multipole Moments
 -----------------------------------------------------------------
    Charge (ESU x 10^10)
                -0.0000
    Dipole Moment (Debye)
         X       2.8977      Y      -0.0000      Z      -0.0000
       Tot       2.8977
    Quadrupole Moments (Debye-Ang)
        XX     -14.7066     XY       0.0000     YY     -12.8771
        XZ      -0.0000     YZ      -0.0000     ZZ     -13.3534
    Octopole Moments (Debye-Ang^2)
       XXX      49.9088    XXY      -0.0000    XYY      12.3465
       YYY      -0.0000    XXZ       0.0000    XYZ       0.0000
       YYZ      -0.0000    XZZ      14.3453    YZZ      -0.0000
       ZZZ      -0.0000
    Hexadecapole Moments (Debye-Ang^3)
      XXXX    -282.4220   XXXY       0.0000   XXYY     -39.0709
      XYYY       0.0000   YYYY     -12.8472   XXXZ      -0.0000
      XXYZ      -0.0000   XYYZ      -0.0000   YYYZ       0.0000
      XXZZ     -47.3225   XYZZ       0.0000   YYZZ      -4.1648
      XZZZ      -0.0000   YZZZ       0.0000   ZZZZ     -12.0682
 -----------------------------------------------------------------
 Calculating analytic gradient of the SCF energy
 Gradient of SCF Energy
            1           2           3           4           5
    1   0.0056593  -0.0016043  -0.0052963   0.0006206   0.0006206
    2  -0.0000000   0.0000000  -0.0000000   0.0314235  -0.0314235
    3   0.0000000   0.0000000  -0.0000000  -0.0000000   0.0000000
 Max gradient component =       3.142E-02
 RMS gradient           =       1.166E-02
 Gradient time:  CPU 2.10 s  wall 0.26 s
 Geometry Optimization Parameters
   NAtoms,    NIC,     NZ,  NCons,   NDum,   NFix, NCnnct, MaxDiis
        5      25       0       0       0       0       0       0

 Cartesian Hessian Update
 Hessian Updated using BFGS Update


** GEOMETRY OPTIMIZATION IN DELOCALIZED INTERNAL COORDINATES **
   Searching for a Minimum

   Optimization Cycle:   3

                       Coordinates (Angstroms)
     ATOM                X               Y               Z
      1  C        -0.0157611205    0.0000000000    0.0000000000
      2  N        -1.1731263730    0.0000000000    0.0000000000
      3  H         1.0466522497    0.0000000000    0.0000000000
      4  H        -4.1988823782   -0.3516901889    0.0000000000
      5  H        -4.1988823782    0.3516901889    0.0000000000
   Point Group: c1    Number of degrees of freedom:     9


   Energy is    -94.601130540

 Hessian Updated using BFGS Update

  4 Hessian modes will be used to form the next step
  Hessian Eigenvalues:
     0.011675    0.290530    0.535857    1.196281

 Minimum Search - Taking Simple RFO Step
 Searching for Lamda that Minimizes Along All modes
 Value Taken    Lamda =  -0.00319308
 Step Taken.  Stepsize is  0.118583

                             Maximum     Tolerance    Cnvgd?
         Gradient           0.028587      0.000300      NO
         Displacement       0.078389      0.001200      NO
         Energy change     -0.006335      0.000001      NO


 New Cartesian Coordinates Obtained by Inverse Iteration

 Displacement from previous Coordinates is:  0.082570
 ----------------------------------------------------------------
             Standard Nuclear Orientation (Angstroms)
    I     Atom           X                Y                Z
 ----------------------------------------------------------------
    1      C      -0.0088075312     0.0000000000     0.0000000000
    2      N      -1.1661603360     0.0000000000     0.0000000000
    3      H       1.0579286121     0.0000000000     0.0000000000
    4      H      -4.2114803724    -0.3778409244     0.0000000000
    5      H      -4.2114803724     0.3778409244     0.0000000000
 ----------------------------------------------------------------
 Nuclear Repulsion Energy =    28.6653598212 hartrees
 There are        8 alpha and        8 beta electrons
 Applying Cartesian multipole field
    Component          Value
    ---------          -----
     (2,0,0)        1.00000E-11
     (0,2,0)        2.00000E-10
     (0,0,2)       -3.00000E-10
 Nucleus-field energy     =     0.0000000019 hartrees
 Requested basis set is 6-31G(d,p)
 There are 17 shells and 45 basis functions
 A cutoff of  1.0D-11 yielded    137 shell pairs
 There are      1016 function pairs
 Smallest overlap matrix eigenvalue = 2.94E-03
 Guess MOs from SCF MO coefficient file

 -----------------------------------------------------------------------
  General SCF calculation program by
  Eric Jon Sundstrom, Paul Horn, Yuezhi Mao, Dmitri Zuev, Alec White,
  David Stuck, Shaama M.S., Shane Yost, Joonho Lee, David Small,
  Daniel Levine, Susi Lehtola, Hugh Burton, Evgeny Epifanovsky
 -----------------------------------------------------------------------
 Exchange:     0.2000 Hartree-Fock + 0.0800 Slater + 0.7200 B88
 Correlation:  0.1900 VWN1RPA + 0.8100 LYP
 Using SG-1 standard quadrature grid
 using 8 threads for integral computing
 -------------------------------------------------------
 OpenMP Integral computing Module                
 Release: version 1.0, May 2013, Q-Chem Inc. Pittsburgh 
 -------------------------------------------------------
 -------------------------------------------------------
 OpenMP BLAS3 based DFT computing Module                
 Release: version 1.0, May 2013, Q-Chem Inc. Pittsburgh 
 -------------------------------------------------------
 A restricted SCF calculation will be
 performed using DIIS
 SCF converges when DIIS error is below 1.0e-08
 ---------------------------------------
  Cycle       Energy         DIIS error
 ---------------------------------------
    1     -94.6017970002      9.36e-04  
    2     -94.6021538053      1.98e-04  
    3     -94.6021631011      1.41e-04  
    4     -94.6021671399      4.13e-05  
    5     -94.6021675155      8.58e-07  
    6     -94.6021675157      1.55e-07  
    7     -94.6021675157      6.93e-09  Convergence criterion met
 ---------------------------------------
 SCF time:   CPU 2.12s  wall 0.00s 
 SCF   energy in the final basis set =      -94.6021675157
 Total energy in the final basis set =      -94.6021675157
 
 --------------------------------------------------------------
 
                    Orbital Energies (a.u.)
 --------------------------------------------------------------
 
 Alpha MOs
 -- Occupied --
-14.360 -10.245  -0.919  -0.608  -0.410  -0.376  -0.359  -0.359
 -- Virtual --
  0.019   0.020   0.083   0.118   0.278   0.520   0.520   0.540
  0.684   0.752   0.770   0.770   0.803   1.054   1.083   1.437
  1.437   1.438   1.507   1.507   1.699   1.711   1.950   1.950
  2.111   2.111   2.366   2.419   2.623   2.624   2.845   2.845
  2.884   3.526   3.851   4.115   4.703
 --------------------------------------------------------------
 
          Ground-State Mulliken Net Atomic Charges

     Atom                 Charge (a.u.)
  ----------------------------------------
      1 C                     0.160815
      2 N                    -0.368519
      3 H                     0.208573
      4 H                    -0.000434
      5 H                    -0.000434
  ----------------------------------------
  Sum of atomic charges =     0.000000

 -----------------------------------------------------------------
                    Cartesian Multipole Moments
 -----------------------------------------------------------------
    Charge (ESU x 10^10)
                 0.0000
    Dipole Moment (Debye)
         X       2.8998      Y      -0.0000      Z      -0.0000
       Tot       2.8998
    Quadrupole Moments (Debye-Ang)
        XX     -14.7140     XY       0.0000     YY     -12.8926
        XZ       0.0000     YZ      -0.0000     ZZ     -13.4260
    Octopole Moments (Debye-Ang^2)
       XXX      50.5291    XXY      -0.0000    XYY      12.3232
       YYY      -0.0000    XXZ      -0.0000    XYZ       0.0000
       YYZ      -0.0000    XZZ      14.5683    YZZ      -0.0000
       ZZZ      -0.0000
    Hexadecapole Moments (Debye-Ang^3)
      XXXX    -290.0801   XXXY       0.0000   XXYY     -39.4035
      XYYY       0.0000   YYYY     -13.1137   XXXZ       0.0000
      XXYZ      -0.0000   XYYZ       0.0000   YYYZ      -0.0000
      XXZZ     -48.6874   XYZZ       0.0000   YYZZ      -4.2310
      XZZZ       0.0000   YZZZ      -0.0000   ZZZZ     -12.1783
 -----------------------------------------------------------------
 Calculating analytic gradient of the SCF energy
 Gradient of SCF Energy
            1           2           3           4           5
    1   0.0020771  -0.0014430  -0.0018767   0.0006213   0.0006213
    2   0.0000000   0.0000000   0.0000000  -0.0096666   0.0096666
    3  -0.0000000   0.0000000   0.0000000   0.0000000  -0.0000000
 Max gradient component =       9.667E-03
 RMS gradient           =       3.629E-03
 Gradient time:  CPU 2.08 s  wall 0.26 s
 Geometry Optimization Parameters
   NAtoms,    NIC,     NZ,  NCons,   NDum,   NFix, NCnnct, MaxDiis
        5      25       0       0       0       0       0       0

 Cartesian Hessian Update
 Hessian Updated using BFGS Update


** GEOMETRY OPTIMIZATION IN DELOCALIZED INTERNAL COORDINATES **
   Searching for a Minimum

   Optimization Cycle:   4

                       Coordinates (Angstroms)
     ATOM                X               Y               Z
      1  C        -0.0088075312    0.0000000000    0.0000000000
      2  N        -1.1661603360    0.0000000000    0.0000000000
      3  H         1.0579286121    0.0000000000    0.0000000000
      4  H        -4.2114803724   -0.3778409244    0.0000000000
      5  H        -4.2114803724    0.3778409244    0.0000000000
   Point Group: c1    Number of degrees of freedom:     9


   Energy is    -94.602167516

 Hessian Updated using BFGS Update

  4 Hessian modes will be used to form the next step
  Hessian Eigenvalues:
     0.011403    0.390510    0.530018    1.196152

 Minimum Search - Taking Simple RFO Step
 Searching for Lamda that Minimizes Along All modes
 Value Taken    Lamda =  -0.00027691
 Step Taken.  Stepsize is  0.067043

                             Maximum     Tolerance    Cnvgd?
         Gradient           0.007836      0.000300      NO
         Displacement       0.045555      0.001200      NO
         Energy change     -0.001037      0.000001      NO


 New Cartesian Coordinates Obtained by Inverse Iteration

 Displacement from previous Coordinates is:  0.053937
 ----------------------------------------------------------------
             Standard Nuclear Orientation (Angstroms)
    I     Atom           X                Y                Z
 ----------------------------------------------------------------
    1      C       0.0005138297     0.0000000000     0.0000000000
    2      N      -1.1567954207     0.0000000000     0.0000000000
    3      H       1.0691258763     0.0000000000     0.0000000000
    4      H      -4.2264221426    -0.3720019267     0.0000000000
    5      H      -4.2264221426     0.3720019267     0.0000000000
 ----------------------------------------------------------------
 Nuclear Repulsion Energy =    28.6428397624 hartrees
 There are        8 alpha and        8 beta electrons
 Applying Cartesian multipole field
    Component          Value
    ---------          -----
     (2,0,0)        1.00000E-11
     (0,2,0)        2.00000E-10
     (0,0,2)       -3.00000E-10
 Nucleus-field energy     =     0.0000000018 hartrees
 Requested basis set is 6-31G(d,p)
 There are 17 shells and 45 basis functions
 A cutoff of  1.0D-11 yielded    137 shell pairs
 There are      1016 function pairs
 Smallest overlap matrix eigenvalue = 2.94E-03
 Guess MOs from SCF MO coefficient file

 -----------------------------------------------------------------------
  General SCF calculation program by
  Eric Jon Sundstrom, Paul Horn, Yuezhi Mao, Dmitri Zuev, Alec White,
  David Stuck, Shaama M.S., Shane Yost, Joonho Lee, David Small,
  Daniel Levine, Susi Lehtola, Hugh Burton, Evgeny Epifanovsky
 -----------------------------------------------------------------------
 Exchange:     0.2000 Hartree-Fock + 0.0800 Slater + 0.7200 B88
 Correlation:  0.1900 VWN1RPA + 0.8100 LYP
 Using SG-1 standard quadrature grid
 using 8 threads for integral computing
 -------------------------------------------------------
 OpenMP Integral computing Module                
 Release: version 1.0, May 2013, Q-Chem Inc. Pittsburgh 
 -------------------------------------------------------
 -------------------------------------------------------
 OpenMP BLAS3 based DFT computing Module                
 Release: version 1.0, May 2013, Q-Chem Inc. Pittsburgh 
 -------------------------------------------------------
 A restricted SCF calculation will be
 performed using DIIS
 SCF converges when DIIS error is below 1.0e-08
 ---------------------------------------
  Cycle       Energy         DIIS error
 ---------------------------------------
    1     -94.6023328869      2.12e-04  
    2     -94.6023504131      5.53e-05  
    3     -94.6023501342      7.41e-05  
    4     -94.6023513505      4.29e-06  
    5     -94.6023513542      8.48e-07  
    6     -94.6023513544      1.15e-07  
    7     -94.6023513544      4.52e-09  Convergence criterion met
 ---------------------------------------
 SCF time:   CPU 2.12s  wall 1.00s 
 SCF   energy in the final basis set =      -94.6023513544
 Total energy in the final basis set =      -94.6023513544
 
 --------------------------------------------------------------
 
                    Orbital Energies (a.u.)
 --------------------------------------------------------------
 
 Alpha MOs
 -- Occupied --
-14.360 -10.246  -0.919  -0.607  -0.412  -0.377  -0.359  -0.359
 -- Virtual --
  0.019   0.020   0.083   0.121   0.278   0.520   0.520   0.537
  0.684   0.748   0.770   0.770   0.802   1.062   1.082   1.438
  1.438   1.438   1.507   1.507   1.697   1.709   1.950   1.950
  2.110   2.110   2.377   2.427   2.636   2.637   2.843   2.843
  2.882   3.523   3.850   4.169   4.699
 --------------------------------------------------------------
 
          Ground-State Mulliken Net Atomic Charges

     Atom                 Charge (a.u.)
  ----------------------------------------
      1 C                     0.160441
      2 N                    -0.368452
      3 H                     0.208838
      4 H                    -0.000413
      5 H                    -0.000413
  ----------------------------------------
  Sum of atomic charges =     0.000000

 -----------------------------------------------------------------
                    Cartesian Multipole Moments
 -----------------------------------------------------------------
    Charge (ESU x 10^10)
                 0.0000
    Dipole Moment (Debye)
         X       2.9015      Y      -0.0000      Z      -0.0000
       Tot       2.9015
    Quadrupole Moments (Debye-Ang)
        XX     -14.6331     XY       0.0000     YY     -12.8927
        XZ       0.0000     YZ      -0.0000     ZZ     -13.4132
    Octopole Moments (Debye-Ang^2)
       XXX      50.0331    XXY      -0.0000    XYY      12.2283
       YYY      -0.0000    XXZ      -0.0000    XYZ      -0.0000
       YYZ      -0.0000    XZZ      14.4273    YZZ      -0.0000
       ZZZ      -0.0000
    Hexadecapole Moments (Debye-Ang^3)
      XXXX    -288.8510   XXXY       0.0000   XXYY     -39.4354
      XYYY       0.0000   YYYY     -13.0572   XXXZ       0.0000
      XXYZ       0.0000   XYYZ       0.0000   YYYZ      -0.0000
      XXZZ     -48.5653   XYZZ       0.0000   YYZZ      -4.2175
      XZZZ       0.0000   YZZZ      -0.0000   ZZZZ     -12.1584
 -----------------------------------------------------------------
 Calculating analytic gradient of the SCF energy
 Gradient of SCF Energy
            1           2           3           4           5
    1   0.0004938  -0.0012020  -0.0004169   0.0005626   0.0005626
    2   0.0000000   0.0000000   0.0000000  -0.0016022   0.0016022
    3  -0.0000000   0.0000000  -0.0000000   0.0000000  -0.0000000
 Max gradient component =       1.602E-03
 RMS gradient           =       7.132E-04
 Gradient time:  CPU 2.08 s  wall 0.26 s
 Geometry Optimization Parameters
   NAtoms,    NIC,     NZ,  NCons,   NDum,   NFix, NCnnct, MaxDiis
        5      25       0       0       0       0       0       0

 Cartesian Hessian Update
 Hessian Updated using BFGS Update


** GEOMETRY OPTIMIZATION IN DELOCALIZED INTERNAL COORDINATES **
   Searching for a Minimum

   Optimization Cycle:   5

                       Coordinates (Angstroms)
     ATOM                X               Y               Z
      1  C         0.0005138297    0.0000000000    0.0000000000
      2  N        -1.1567954207    0.0000000000    0.0000000000
      3  H         1.0691258763    0.0000000000    0.0000000000
      4  H        -4.2264221426   -0.3720019267    0.0000000000
      5  H        -4.2264221426    0.3720019267    0.0000000000
   Point Group: c1    Number of degrees of freedom:     9


   Energy is    -94.602351354

 Hessian Updated using BFGS Update

  4 Hessian modes will be used to form the next step
  Hessian Eigenvalues:
     0.007745    0.394115    0.528496    1.196021

 Minimum Search - Taking Simple RFO Step
 Searching for Lamda that Minimizes Along All modes
 Value Taken    Lamda =  -0.00010665
 Step Taken.  Stepsize is  0.113050

                             Maximum     Tolerance    Cnvgd?
         Gradient           0.001471      0.000300      NO
         Displacement       0.082688      0.001200      NO
         Energy change     -0.000184      0.000001      NO


 New Cartesian Coordinates Obtained by Inverse Iteration

 Displacement from previous Coordinates is:  0.089329
 ----------------------------------------------------------------
             Standard Nuclear Orientation (Angstroms)
    I     Atom           X                Y                Z
 ----------------------------------------------------------------
    1      C       0.0172618226     0.0000000000     0.0000000000
    2      N      -1.1399543625     0.0000000000     0.0000000000
    3      H       1.0871656410     0.0000000000     0.0000000000
    4      H      -4.2522365506    -0.3695299805     0.0000000000
    5      H      -4.2522365506     0.3695299805     0.0000000000
 ----------------------------------------------------------------
 Nuclear Repulsion Energy =    28.5961525851 hartrees
 There are        8 alpha and        8 beta electrons
 Applying Cartesian multipole field
    Component          Value
    ---------          -----
     (2,0,0)        1.00000E-11
     (0,2,0)        2.00000E-10
     (0,0,2)       -3.00000E-10
 Nucleus-field energy     =     0.0000000019 hartrees
 Requested basis set is 6-31G(d,p)
 There are 17 shells and 45 basis functions
 A cutoff of  1.0D-11 yielded    137 shell pairs
 There are      1016 function pairs
 Smallest overlap matrix eigenvalue = 2.95E-03
 Guess MOs from SCF MO coefficient file

 -----------------------------------------------------------------------
  General SCF calculation program by
  Eric Jon Sundstrom, Paul Horn, Yuezhi Mao, Dmitri Zuev, Alec White,
  David Stuck, Shaama M.S., Shane Yost, Joonho Lee, David Small,
  Daniel Levine, Susi Lehtola, Hugh Burton, Evgeny Epifanovsky
 -----------------------------------------------------------------------
 Exchange:     0.2000 Hartree-Fock + 0.0800 Slater + 0.7200 B88
 Correlation:  0.1900 VWN1RPA + 0.8100 LYP
 Using SG-1 standard quadrature grid
 using 8 threads for integral computing
 -------------------------------------------------------
 OpenMP Integral computing Module                
 Release: version 1.0, May 2013, Q-Chem Inc. Pittsburgh 
 -------------------------------------------------------
 -------------------------------------------------------
 OpenMP BLAS3 based DFT computing Module                
 Release: version 1.0, May 2013, Q-Chem Inc. Pittsburgh 
 -------------------------------------------------------
 A restricted SCF calculation will be
 performed using DIIS
 SCF converges when DIIS error is below 1.0e-08
 ---------------------------------------
  Cycle       Energy         DIIS error
 ---------------------------------------
    1     -94.6024294108      1.04e-04  
    2     -94.6024332676      3.39e-05  
    3     -94.6024328616      5.69e-05  
    4     -94.6024335786      1.55e-06  
    5     -94.6024335792      2.93e-07  
    6     -94.6024335792      5.68e-08  
    7     -94.6024335792      4.25e-09  Convergence criterion met
 ---------------------------------------
 SCF time:   CPU 2.11s  wall 0.00s 
 SCF   energy in the final basis set =      -94.6024335792
 Total energy in the final basis set =      -94.6024335792
 
 --------------------------------------------------------------
 
                    Orbital Energies (a.u.)
 --------------------------------------------------------------
 
 Alpha MOs
 -- Occupied --
-14.360 -10.246  -0.919  -0.607  -0.413  -0.378  -0.359  -0.359
 -- Virtual --
  0.019   0.020   0.082   0.122   0.278   0.520   0.520   0.536
  0.684   0.743   0.770   0.770   0.802   1.065   1.081   1.438
  1.438   1.439   1.507   1.507   1.696   1.706   1.950   1.950
  2.110   2.110   2.379   2.430   2.641   2.642   2.842   2.842
  2.880   3.521   3.850   4.193   4.696
 --------------------------------------------------------------
 
          Ground-State Mulliken Net Atomic Charges

     Atom                 Charge (a.u.)
  ----------------------------------------
      1 C                     0.160161
      2 N                    -0.368426
      3 H                     0.208993
      4 H                    -0.000364
      5 H                    -0.000364
  ----------------------------------------
  Sum of atomic charges =    -0.000000

 -----------------------------------------------------------------
                    Cartesian Multipole Moments
 -----------------------------------------------------------------
    Charge (ESU x 10^10)
                 0.0000
    Dipole Moment (Debye)
         X       2.9018      Y      -0.0000      Z       0.0000
       Tot       2.9018
    Quadrupole Moments (Debye-Ang)
        XX     -14.5129     XY       0.0000     YY     -12.8929
        XZ      -0.0000     YZ       0.0000     ZZ     -13.4082
    Octopole Moments (Debye-Ang^2)
       XXX      49.3991    XXY      -0.0000    XYY      12.0695
       YYY      -0.0000    XXZ       0.0000    XYZ       0.0000
       YYZ       0.0000    XZZ      14.2598    YZZ      -0.0000
       ZZZ       0.0000
    Hexadecapole Moments (Debye-Ang^3)
      XXXX    -288.8090   XXXY       0.0000   XXYY     -39.5462
      XYYY       0.0000   YYYY     -13.0337   XXXZ      -0.0000
      XXYZ      -0.0000   XYYZ       0.0000   YYYZ       0.0000
      XXZZ     -48.6989   XYZZ       0.0000   YYZZ      -4.2119
      XZZZ       0.0000   YZZZ       0.0000   ZZZZ     -12.1505
 -----------------------------------------------------------------
 Calculating analytic gradient of the SCF energy
 Gradient of SCF Energy
            1           2           3           4           5
    1  -0.0007308  -0.0008263   0.0005816   0.0004877   0.0004877
    2   0.0000000  -0.0000000  -0.0000000   0.0020459  -0.0020459
    3  -0.0000000   0.0000000  -0.0000000  -0.0000000   0.0000000
 Max gradient component =       2.046E-03
 RMS gradient           =       8.327E-04
 Gradient time:  CPU 2.07 s  wall 0.26 s
 Geometry Optimization Parameters
   NAtoms,    NIC,     NZ,  NCons,   NDum,   NFix, NCnnct, MaxDiis
        5      25       0       0       0       0       0       0

 Cartesian Hessian Update
 Hessian Updated using BFGS Update


** GEOMETRY OPTIMIZATION IN DELOCALIZED INTERNAL COORDINATES **
   Searching for a Minimum

   Optimization Cycle:   6

                       Coordinates (Angstroms)
     ATOM                X               Y               Z
      1  C         0.0172618226    0.0000000000    0.0000000000
      2  N        -1.1399543625    0.0000000000    0.0000000000
      3  H         1.0871656410    0.0000000000    0.0000000000
      4  H        -4.2522365506   -0.3695299805    0.0000000000
      5  H        -4.2522365506    0.3695299805    0.0000000000
   Point Group: c1    Number of degrees of freedom:     9


   Energy is    -94.602433579

 Hessian Updated using BFGS Update

  4 Hessian modes will be used to form the next step
  Hessian Eigenvalues:
     0.002208    0.506474    0.665127    1.198515

 Minimum Search - Taking Simple RFO Step
 Searching for Lamda that Minimizes Along All modes
 Value Taken    Lamda =  -0.00016475
 Step Taken.  Stepsize is  0.259085

                             Maximum     Tolerance    Cnvgd?
         Gradient           0.001648      0.000300      NO
         Displacement       0.190246      0.001200      NO
         Energy change     -0.000082      0.000001      NO


 New Cartesian Coordinates Obtained by Inverse Iteration

 Displacement from previous Coordinates is:  0.202988
 ----------------------------------------------------------------
             Standard Nuclear Orientation (Angstroms)
    I     Atom           X                Y                Z
 ----------------------------------------------------------------
    1      C       0.0560172803     0.0000000000     0.0000000000
    2      N      -1.1011034793     0.0000000000     0.0000000000
    3      H       1.1271932932     0.0000000000     0.0000000000
    4      H      -4.3110535471    -0.3678158590     0.0000000000
    5      H      -4.3110535471     0.3678158590     0.0000000000
 ----------------------------------------------------------------
 Nuclear Repulsion Energy =    28.4894473161 hartrees
 There are        8 alpha and        8 beta electrons
 Applying Cartesian multipole field
    Component          Value
    ---------          -----
     (2,0,0)        1.00000E-11
     (0,2,0)        2.00000E-10
     (0,0,2)       -3.00000E-10
 Nucleus-field energy     =     0.0000000019 hartrees
 Requested basis set is 6-31G(d,p)
 There are 17 shells and 45 basis functions
 A cutoff of  1.0D-11 yielded    137 shell pairs
 There are      1016 function pairs
 Smallest overlap matrix eigenvalue = 2.96E-03
 Guess MOs from SCF MO coefficient file

 -----------------------------------------------------------------------
  General SCF calculation program by
  Eric Jon Sundstrom, Paul Horn, Yuezhi Mao, Dmitri Zuev, Alec White,
  David Stuck, Shaama M.S., Shane Yost, Joonho Lee, David Small,
  Daniel Levine, Susi Lehtola, Hugh Burton, Evgeny Epifanovsky
 -----------------------------------------------------------------------
 Exchange:     0.2000 Hartree-Fock + 0.0800 Slater + 0.7200 B88
 Correlation:  0.1900 VWN1RPA + 0.8100 LYP
 Using SG-1 standard quadrature grid
 using 8 threads for integral computing
 -------------------------------------------------------
 OpenMP Integral computing Module                
 Release: version 1.0, May 2013, Q-Chem Inc. Pittsburgh 
 -------------------------------------------------------
 -------------------------------------------------------
 OpenMP BLAS3 based DFT computing Module                
 Release: version 1.0, May 2013, Q-Chem Inc. Pittsburgh 
 -------------------------------------------------------
 A restricted SCF calculation will be
 performed using DIIS
 SCF converges when DIIS error is below 1.0e-08
 ---------------------------------------
  Cycle       Energy         DIIS error
 ---------------------------------------
    1     -94.6025620293      1.15e-04  
    2     -94.6025660773      3.46e-05  
    3     -94.6025652821      7.04e-05  
    4     -94.6025663802      1.73e-06  
    5     -94.6025663811      2.27e-07  
    6     -94.6025663811      5.08e-08  
    7     -94.6025663811      8.18e-09  Convergence criterion met
 ---------------------------------------
 SCF time:   CPU 2.14s  wall 1.00s 
 SCF   energy in the final basis set =      -94.6025663811
 Total energy in the final basis set =      -94.6025663811
 
 --------------------------------------------------------------
 
                    Orbital Energies (a.u.)
 --------------------------------------------------------------
 
 Alpha MOs
 -- Occupied --
-14.360 -10.246  -0.919  -0.607  -0.414  -0.378  -0.359  -0.359
 -- Virtual --
  0.019   0.020   0.082   0.122   0.278   0.520   0.520   0.537
  0.684   0.733   0.770   0.770   0.801   1.066   1.080   1.438
  1.438   1.440   1.507   1.507   1.694   1.701   1.950   1.950
  2.109   2.109   2.379   2.431   2.644   2.645   2.841   2.841
  2.875   3.519   3.850   4.209   4.693
 --------------------------------------------------------------
 
          Ground-State Mulliken Net Atomic Charges

     Atom                 Charge (a.u.)
  ----------------------------------------
      1 C                     0.159810
      2 N                    -0.368405
      3 H                     0.209114
      4 H                    -0.000259
      5 H                    -0.000259
  ----------------------------------------
  Sum of atomic charges =     0.000000

 -----------------------------------------------------------------
                    Cartesian Multipole Moments
 -----------------------------------------------------------------
    Charge (ESU x 10^10)
                 0.0000
    Dipole Moment (Debye)
         X       2.9004      Y       0.0000      Z      -0.0000
       Tot       2.9004
    Quadrupole Moments (Debye-Ang)
        XX     -14.2539     XY      -0.0000     YY     -12.8933
        XZ       0.0000     YZ      -0.0000     ZZ     -13.4052
    Octopole Moments (Debye-Ang^2)
       XXX      48.1110    XXY       0.0000    XYY      11.7104
       YYY       0.0000    XXZ      -0.0000    XYZ       0.0000
       YYZ      -0.0000    XZZ      13.9167    YZZ       0.0000
       ZZZ      -0.0000
    Hexadecapole Moments (Debye-Ang^3)
      XXXX    -290.1452   XXXY      -0.0000   XXYY     -39.8593
      XYYY      -0.0000   YYYY     -13.0177   XXXZ       0.0000
      XXYZ      -0.0000   XYYZ       0.0000   YYYZ      -0.0000
      XXZZ     -49.2119   XYZZ      -0.0000   YYZZ      -4.2082
      XZZZ       0.0000   YZZZ      -0.0000   ZZZZ     -12.1456
 -----------------------------------------------------------------
 Calculating analytic gradient of the SCF energy
 Gradient of SCF Energy
            1           2           3           4           5
    1  -0.0019196  -0.0003859   0.0015580   0.0003737   0.0003737
    2   0.0000000   0.0000000  -0.0000000   0.0047287  -0.0047287
    3   0.0000000  -0.0000000  -0.0000000  -0.0000000   0.0000000
 Max gradient component =       4.729E-03
 RMS gradient           =       1.849E-03
 Gradient time:  CPU 2.09 s  wall 0.26 s
 Geometry Optimization Parameters
   NAtoms,    NIC,     NZ,  NCons,   NDum,   NFix, NCnnct, MaxDiis
        5      25       0       0       0       0       0       0

 Cartesian Hessian Update
 Hessian Updated using BFGS Update


** GEOMETRY OPTIMIZATION IN DELOCALIZED INTERNAL COORDINATES **
   Searching for a Minimum

   Optimization Cycle:   7

                       Coordinates (Angstroms)
     ATOM                X               Y               Z
      1  C         0.0560172803    0.0000000000    0.0000000000
      2  N        -1.1011034793    0.0000000000    0.0000000000
      3  H         1.1271932932    0.0000000000    0.0000000000
      4  H        -4.3110535471   -0.3678158590    0.0000000000
      5  H        -4.3110535471    0.3678158590    0.0000000000
   Point Group: c1    Number of degrees of freedom:     9


   Energy is    -94.602566381

 Hessian Updated using BFGS Update

  4 Hessian modes will be used to form the next step
  Hessian Eigenvalues:
     0.000780    0.507789    0.759219    1.200864

 Minimum Search - Taking Simple RFO Step
 Searching for Lamda that Minimizes Along All modes
 Value Taken    Lamda =  -0.00024231
 Calculated Step too Large.  Step scaled by  0.658082
 Step Taken.  Stepsize is  0.300000

                             Maximum     Tolerance    Cnvgd?
         Gradient           0.003518      0.000300      NO
         Displacement       0.220196      0.001200      NO
         Energy change     -0.000133      0.000001      NO


 New Cartesian Coordinates Obtained by Inverse Iteration

 Displacement from previous Coordinates is:  0.233839
 ----------------------------------------------------------------
             Standard Nuclear Orientation (Angstroms)
    I     Atom           X                Y                Z
 ----------------------------------------------------------------
    1      C       0.1011090967     0.0000000000     0.0000000000
    2      N      -1.0559804650     0.0000000000     0.0000000000
    3      H       1.1725313626     0.0000000000     0.0000000000
    4      H      -4.3788299972    -0.3678518552     0.0000000000
    5      H      -4.3788299972     0.3678518552     0.0000000000
 ----------------------------------------------------------------
 Nuclear Repulsion Energy =    28.3719046203 hartrees
 There are        8 alpha and        8 beta electrons
 Applying Cartesian multipole field
    Component          Value
    ---------          -----
     (2,0,0)        1.00000E-11
     (0,2,0)        2.00000E-10
     (0,0,2)       -3.00000E-10
 Nucleus-field energy     =     0.0000000019 hartrees
 Requested basis set is 6-31G(d,p)
 There are 17 shells and 45 basis functions
 A cutoff of  1.0D-11 yielded    133 shell pairs
 There are       980 function pairs
 Smallest overlap matrix eigenvalue = 2.97E-03
 Guess MOs from SCF MO coefficient file

 -----------------------------------------------------------------------
  General SCF calculation program by
  Eric Jon Sundstrom, Paul Horn, Yuezhi Mao, Dmitri Zuev, Alec White,
  David Stuck, Shaama M.S., Shane Yost, Joonho Lee, David Small,
  Daniel Levine, Susi Lehtola, Hugh Burton, Evgeny Epifanovsky
 -----------------------------------------------------------------------
 Exchange:     0.2000 Hartree-Fock + 0.0800 Slater + 0.7200 B88
 Correlation:  0.1900 VWN1RPA + 0.8100 LYP
 Using SG-1 standard quadrature grid
 using 8 threads for integral computing
 -------------------------------------------------------
 OpenMP Integral computing Module                
 Release: version 1.0, May 2013, Q-Chem Inc. Pittsburgh 
 -------------------------------------------------------
 -------------------------------------------------------
 OpenMP BLAS3 based DFT computing Module                
 Release: version 1.0, May 2013, Q-Chem Inc. Pittsburgh 
 -------------------------------------------------------
 A restricted SCF calculation will be
 performed using DIIS
 SCF converges when DIIS error is below 1.0e-08
 ---------------------------------------
  Cycle       Energy         DIIS error
 ---------------------------------------
    1     -94.6027032522      8.98e-05  
    2     -94.6027056282      1.27e-05  
    3     -94.6027054213      3.33e-05  
    4     -94.6027056680      7.23e-07  
    5     -94.6027056681      7.27e-08  
    6     -94.6027056681      2.09e-08  
    7     -94.6027056681      1.87e-09  Convergence criterion met
 ---------------------------------------
 SCF time:   CPU 2.13s  wall 0.00s 
 SCF   energy in the final basis set =      -94.6027056681
 Total energy in the final basis set =      -94.6027056681
 
 --------------------------------------------------------------
 
                    Orbital Energies (a.u.)
 --------------------------------------------------------------
 
 Alpha MOs
 -- Occupied --
-14.360 -10.246  -0.920  -0.607  -0.415  -0.379  -0.359  -0.359
 -- Virtual --
  0.019   0.020   0.081   0.121   0.278   0.520   0.520   0.541
  0.683   0.721   0.770   0.770   0.801   1.063   1.079   1.438
  1.438   1.441   1.507   1.507   1.693   1.697   1.950   1.950
  2.109   2.109   2.378   2.427   2.642   2.643   2.840   2.840
  2.871   3.519   3.850   4.207   4.692
 --------------------------------------------------------------
 
          Ground-State Mulliken Net Atomic Charges

     Atom                 Charge (a.u.)
  ----------------------------------------
      1 C                     0.159598
      2 N                    -0.368374
      3 H                     0.209099
      4 H                    -0.000161
      5 H                    -0.000161
  ----------------------------------------
  Sum of atomic charges =    -0.000000

 -----------------------------------------------------------------
                    Cartesian Multipole Moments
 -----------------------------------------------------------------
    Charge (ESU x 10^10)
                -0.0000
    Dipole Moment (Debye)
         X       2.8983      Y       0.0000      Z      -0.0000
       Tot       2.8983
    Quadrupole Moments (Debye-Ang)
        XX     -13.9693     XY      -0.0000     YY     -12.8935
        XZ       0.0000     YZ       0.0000     ZZ     -13.4058
    Octopole Moments (Debye-Ang^2)
       XXX      46.7625    XXY       0.0000    XYY      11.2977
       YYY       0.0000    XXZ      -0.0000    XYZ      -0.0000
       YYZ      -0.0000    XZZ      13.5408    YZZ       0.0000
       ZZZ      -0.0000
    Hexadecapole Moments (Debye-Ang^3)
      XXXX    -292.8877   XXXY      -0.0000   XXYY     -40.2928
      XYYY      -0.0000   YYYY     -13.0182   XXXZ       0.0000
      XXYZ       0.0000   XYYZ       0.0000   YYYZ       0.0000
      XXZZ     -49.9559   XYZZ      -0.0000   YYZZ      -4.2084
      XZZZ       0.0000   YZZZ       0.0000   ZZZZ     -12.1464
 -----------------------------------------------------------------
 Calculating analytic gradient of the SCF energy
 Gradient of SCF Energy
            1           2           3           4           5
    1  -0.0021469  -0.0001643   0.0017477   0.0002818   0.0002818
    2  -0.0000000   0.0000000  -0.0000000   0.0047915  -0.0047915
    3   0.0000000  -0.0000000   0.0000000   0.0000000  -0.0000000
 Max gradient component =       4.791E-03
 RMS gradient           =       1.893E-03
 Gradient time:  CPU 2.07 s  wall 0.26 s
 Geometry Optimization Parameters
   NAtoms,    NIC,     NZ,  NCons,   NDum,   NFix, NCnnct, MaxDiis
        5      25       0       0       0       0       0       0

 Cartesian Hessian Update
 Hessian Updated using BFGS Update


** GEOMETRY OPTIMIZATION IN DELOCALIZED INTERNAL COORDINATES **
   Searching for a Minimum

   Optimization Cycle:   8

                       Coordinates (Angstroms)
     ATOM                X               Y               Z
      1  C         0.1011090967    0.0000000000    0.0000000000
      2  N        -1.0559804650    0.0000000000    0.0000000000
      3  H         1.1725313626    0.0000000000    0.0000000000
      4  H        -4.3788299972   -0.3678518552    0.0000000000
      5  H        -4.3788299972    0.3678518552    0.0000000000
   Point Group: c1    Number of degrees of freedom:     9


   Energy is    -94.602705668

 Hessian Updated using BFGS Update

  4 Hessian modes will be used to form the next step
  Hessian Eigenvalues:
     0.000448    0.503767    0.646435    1.198305

 Minimum Search - Taking Simple RFO Step
 Searching for Lamda that Minimizes Along All modes
 Value Taken    Lamda =  -0.00026444
 Calculated Step too Large.  Step scaled by  0.531683
 Step Taken.  Stepsize is  0.300000

                             Maximum     Tolerance    Cnvgd?
         Gradient           0.003640      0.000300      NO
         Displacement       0.219962      0.001200      NO
         Energy change     -0.000139      0.000001      NO


 New Cartesian Coordinates Obtained by Inverse Iteration

 Displacement from previous Coordinates is:  0.233098
 ----------------------------------------------------------------
             Standard Nuclear Orientation (Angstroms)
    I     Atom           X                Y                Z
 ----------------------------------------------------------------
    1      C       0.1463408825     0.0000000000     0.0000000000
    2      N      -1.0107691396     0.0000000000     0.0000000000
    3      H       1.2172012128     0.0000000000     0.0000000000
    4      H      -4.4463864778    -0.3688709672     0.0000000000
    5      H      -4.4463864778     0.3688709672     0.0000000000
 ----------------------------------------------------------------
 Nuclear Repulsion Energy =    28.2613215232 hartrees
 There are        8 alpha and        8 beta electrons
 Applying Cartesian multipole field
    Component          Value
    ---------          -----
     (2,0,0)        1.00000E-11
     (0,2,0)        2.00000E-10
     (0,0,2)       -3.00000E-10
 Nucleus-field energy     =     0.0000000019 hartrees
 Requested basis set is 6-31G(d,p)
 There are 17 shells and 45 basis functions
 A cutoff of  1.0D-11 yielded    133 shell pairs
 There are       980 function pairs
 Smallest overlap matrix eigenvalue = 2.98E-03
 Guess MOs from SCF MO coefficient file

 -----------------------------------------------------------------------
  General SCF calculation program by
  Eric Jon Sundstrom, Paul Horn, Yuezhi Mao, Dmitri Zuev, Alec White,
  David Stuck, Shaama M.S., Shane Yost, Joonho Lee, David Small,
  Daniel Levine, Susi Lehtola, Hugh Burton, Evgeny Epifanovsky
 -----------------------------------------------------------------------
 Exchange:     0.2000 Hartree-Fock + 0.0800 Slater + 0.7200 B88
 Correlation:  0.1900 VWN1RPA + 0.8100 LYP
 Using SG-1 standard quadrature grid
 using 8 threads for integral computing
 -------------------------------------------------------
 OpenMP Integral computing Module                
 Release: version 1.0, May 2013, Q-Chem Inc. Pittsburgh 
 -------------------------------------------------------
 -------------------------------------------------------
 OpenMP BLAS3 based DFT computing Module                
 Release: version 1.0, May 2013, Q-Chem Inc. Pittsburgh 
 -------------------------------------------------------
 A restricted SCF calculation will be
 performed using DIIS
 SCF converges when DIIS error is below 1.0e-08
 ---------------------------------------
  Cycle       Energy         DIIS error
 ---------------------------------------
    1     -94.6028184154      8.62e-05  
    2     -94.6028208599      9.61e-06  
    3     -94.6028208617      1.11e-05  
    4     -94.6028208799      6.52e-06  
    5     -94.6028208894      1.17e-07  
    6     -94.6028208894      2.78e-08  
    7     -94.6028208894      3.73e-09  Convergence criterion met
 ---------------------------------------
 SCF time:   CPU 2.12s  wall 0.00s 
 SCF   energy in the final basis set =      -94.6028208894
 Total energy in the final basis set =      -94.6028208894
 
 --------------------------------------------------------------
 
                    Orbital Energies (a.u.)
 --------------------------------------------------------------
 
 Alpha MOs
 -- Occupied --
-14.360 -10.246  -0.920  -0.607  -0.415  -0.379  -0.359  -0.359
 -- Virtual --
  0.019   0.020   0.082   0.119   0.278   0.520   0.520   0.546
  0.681   0.710   0.770   0.770   0.801   1.060   1.079   1.438
  1.438   1.442   1.507   1.507   1.692   1.694   1.950   1.950
  2.109   2.109   2.378   2.421   2.639   2.640   2.841   2.841
  2.868   3.520   3.849   4.196   4.693
 --------------------------------------------------------------
 
          Ground-State Mulliken Net Atomic Charges

     Atom                 Charge (a.u.)
  ----------------------------------------
      1 C                     0.159473
      2 N                    -0.368287
      3 H                     0.208992
      4 H                    -0.000089
      5 H                    -0.000089
  ----------------------------------------
  Sum of atomic charges =    -0.000000

 -----------------------------------------------------------------
                    Cartesian Multipole Moments
 -----------------------------------------------------------------
    Charge (ESU x 10^10)
                -0.0000
    Dipole Moment (Debye)
         X       2.8963      Y      -0.0000      Z       0.0000
       Tot       2.8963
    Quadrupole Moments (Debye-Ang)
        XX     -13.6964     XY       0.0000     YY     -12.8932
        XZ      -0.0000     YZ       0.0000     ZZ     -13.4080
    Octopole Moments (Debye-Ang^2)
       XXX      45.5216    XXY      -0.0000    XYY      10.8867
       YYY      -0.0000    XXZ       0.0000    XYZ       0.0000
       YYZ       0.0000    XZZ      13.1757    YZZ      -0.0000
       ZZZ       0.0000
    Hexadecapole Moments (Debye-Ang^3)
      XXXX    -296.5398   XXXY       0.0000   XXYY     -40.7929
      XYYY       0.0000   YYYY     -13.0274   XXXZ      -0.0000
      XXYZ      -0.0000   XYYZ      -0.0000   YYYZ       0.0000
      XXZZ     -50.8100   XYZZ       0.0000   YYZZ      -4.2107
      XZZZ      -0.0000   YZZZ       0.0000   ZZZZ     -12.1498
 -----------------------------------------------------------------
 Calculating analytic gradient of the SCF energy
 Gradient of SCF Energy
            1           2           3           4           5
    1  -0.0016120  -0.0000595   0.0013227   0.0001744   0.0001744
    2   0.0000000  -0.0000000  -0.0000000   0.0033436  -0.0033436
    3   0.0000000  -0.0000000   0.0000000  -0.0000000   0.0000000
 Max gradient component =       3.344E-03
 RMS gradient           =       1.336E-03
 Gradient time:  CPU 2.08 s  wall 0.26 s
 Geometry Optimization Parameters
   NAtoms,    NIC,     NZ,  NCons,   NDum,   NFix, NCnnct, MaxDiis
        5      25       0       0       0       0       0       0

 Cartesian Hessian Update
 Hessian Updated using BFGS Update


** GEOMETRY OPTIMIZATION IN DELOCALIZED INTERNAL COORDINATES **
   Searching for a Minimum

   Optimization Cycle:   9

                       Coordinates (Angstroms)
     ATOM                X               Y               Z
      1  C         0.1463408825    0.0000000000    0.0000000000
      2  N        -1.0107691396    0.0000000000    0.0000000000
      3  H         1.2172012128    0.0000000000    0.0000000000
      4  H        -4.4463864778   -0.3688709672    0.0000000000
      5  H        -4.4463864778    0.3688709672    0.0000000000
   Point Group: c1    Number of degrees of freedom:     9


   Energy is    -94.602820889

 Hessian Updated using BFGS Update

  4 Hessian modes will be used to form the next step
  Hessian Eigenvalues:
     0.000541    0.494352    0.561990    1.196634

 Minimum Search - Taking Simple RFO Step
 Searching for Lamda that Minimizes Along All modes
 Value Taken    Lamda =  -0.00012699
 Calculated Step too Large.  Step scaled by  0.760092
 Step Taken.  Stepsize is  0.300000

                             Maximum     Tolerance    Cnvgd?
         Gradient           0.002606      0.000300      NO
         Displacement       0.219776      0.001200      NO
         Energy change     -0.000115      0.000001      NO


 New Cartesian Coordinates Obtained by Inverse Iteration

 Displacement from previous Coordinates is:  0.232644
 ----------------------------------------------------------------
             Standard Nuclear Orientation (Angstroms)
    I     Atom           X                Y                Z
 ----------------------------------------------------------------
    1      C       0.1916557968     0.0000000000     0.0000000000
    2      N      -0.9654975437     0.0000000000     0.0000000000
    3      H       1.2614519848     0.0000000000     0.0000000000
    4      H      -4.5138051190    -0.3703574827     0.0000000000
    5      H      -4.5138051190     0.3703574827     0.0000000000
 ----------------------------------------------------------------
 Nuclear Repulsion Energy =    28.1575502555 hartrees
 There are        8 alpha and        8 beta electrons
 Applying Cartesian multipole field
    Component          Value
    ---------          -----
     (2,0,0)        1.00000E-11
     (0,2,0)        2.00000E-10
     (0,0,2)       -3.00000E-10
 Nucleus-field energy     =     0.0000000019 hartrees
 Requested basis set is 6-31G(d,p)
 There are 17 shells and 45 basis functions
 A cutoff of  1.0D-11 yielded    131 shell pairs
 There are       978 function pairs
 Smallest overlap matrix eigenvalue = 2.98E-03
 Guess MOs from SCF MO coefficient file

 -----------------------------------------------------------------------
  General SCF calculation program by
  Eric Jon Sundstrom, Paul Horn, Yuezhi Mao, Dmitri Zuev, Alec White,
  David Stuck, Shaama M.S., Shane Yost, Joonho Lee, David Small,
  Daniel Levine, Susi Lehtola, Hugh Burton, Evgeny Epifanovsky
 -----------------------------------------------------------------------
 Exchange:     0.2000 Hartree-Fock + 0.0800 Slater + 0.7200 B88
 Correlation:  0.1900 VWN1RPA + 0.8100 LYP
 Using SG-1 standard quadrature grid
 using 8 threads for integral computing
 -------------------------------------------------------
 OpenMP Integral computing Module                
 Release: version 1.0, May 2013, Q-Chem Inc. Pittsburgh 
 -------------------------------------------------------
 -------------------------------------------------------
 OpenMP BLAS3 based DFT computing Module                
 Release: version 1.0, May 2013, Q-Chem Inc. Pittsburgh 
 -------------------------------------------------------
 A restricted SCF calculation will be
 performed using DIIS
 SCF converges when DIIS error is below 1.0e-08
 ---------------------------------------
  Cycle       Energy         DIIS error
 ---------------------------------------
    1     -94.6028868837      8.97e-05  
    2     -94.6028897092      1.88e-05  
    3     -94.6028895621      3.31e-05  
    4     -94.6028898030      4.01e-06  
    5     -94.6028898065      2.00e-07  
    6     -94.6028898066      3.61e-08  
    7     -94.6028898066      5.16e-09  Convergence criterion met
 ---------------------------------------
 SCF time:   CPU 2.12s  wall 0.00s 
 SCF   energy in the final basis set =      -94.6028898066
 Total energy in the final basis set =      -94.6028898066
 
 --------------------------------------------------------------
 
                    Orbital Energies (a.u.)
 --------------------------------------------------------------
 
 Alpha MOs
 -- Occupied --
-14.360 -10.246  -0.920  -0.607  -0.415  -0.380  -0.359  -0.359
 -- Virtual --
  0.019   0.020   0.082   0.118   0.278   0.520   0.520   0.552
  0.678   0.702   0.770   0.770   0.802   1.056   1.080   1.438
  1.438   1.441   1.507   1.507   1.691   1.693   1.950   1.950
  2.110   2.110   2.378   2.414   2.635   2.635   2.842   2.842
  2.866   3.521   3.849   4.180   4.694
 --------------------------------------------------------------
 
          Ground-State Mulliken Net Atomic Charges

     Atom                 Charge (a.u.)
  ----------------------------------------
      1 C                     0.159467
      2 N                    -0.368215
      3 H                     0.208824
      4 H                    -0.000038
      5 H                    -0.000038
  ----------------------------------------
  Sum of atomic charges =     0.000000

 -----------------------------------------------------------------
                    Cartesian Multipole Moments
 -----------------------------------------------------------------
    Charge (ESU x 10^10)
                -0.0000
    Dipole Moment (Debye)
         X       2.8942      Y      -0.0000      Z       0.0000
       Tot       2.8942
    Quadrupole Moments (Debye-Ang)
        XX     -13.4308     XY       0.0000     YY     -12.8926
        XZ       0.0000     YZ       0.0000     ZZ     -13.4109
    Octopole Moments (Debye-Ang^2)
       XXX      44.3597    XXY      -0.0000    XYY      10.4766
       YYY      -0.0000    XXZ       0.0000    XYZ      -0.0000
       YYZ       0.0000    XZZ      12.8161    YZZ      -0.0000
       ZZZ       0.0000
    Hexadecapole Moments (Debye-Ang^3)
      XXXX    -300.9023   XXXY       0.0000   XXYY     -41.3562
      XYYY       0.0000   YYYY     -13.0408   XXXZ       0.0000
      XXYZ       0.0000   XYYZ       0.0000   YYYZ       0.0000
      XXZZ     -51.7534   XYZZ       0.0000   YYZZ      -4.2138
      XZZZ       0.0000   YZZZ       0.0000   ZZZZ     -12.1544
 -----------------------------------------------------------------
 Calculating analytic gradient of the SCF energy
 Gradient of SCF Energy
            1           2           3           4           5
    1  -0.0006311  -0.0000606   0.0005110   0.0000904   0.0000904
    2   0.0000000   0.0000000   0.0000000   0.0012138  -0.0012138
    3  -0.0000000  -0.0000000   0.0000000   0.0000000  -0.0000000
 Max gradient component =       1.214E-03
 RMS gradient           =       4.917E-04
 Gradient time:  CPU 2.08 s  wall 0.26 s
 Geometry Optimization Parameters
   NAtoms,    NIC,     NZ,  NCons,   NDum,   NFix, NCnnct, MaxDiis
        5      25       0       0       0       0       0       0

 Cartesian Hessian Update
 Hessian Updated using BFGS Update


** GEOMETRY OPTIMIZATION IN DELOCALIZED INTERNAL COORDINATES **
   Searching for a Minimum

   Optimization Cycle:  10

                       Coordinates (Angstroms)
     ATOM                X               Y               Z
      1  C         0.1916557968    0.0000000000    0.0000000000
      2  N        -0.9654975437    0.0000000000    0.0000000000
      3  H         1.2614519848    0.0000000000    0.0000000000
      4  H        -4.5138051190   -0.3703574827    0.0000000000
      5  H        -4.5138051190    0.3703574827    0.0000000000
   Point Group: c1    Number of degrees of freedom:     9


   Energy is    -94.602889807

 Hessian Updated using BFGS Update

  4 Hessian modes will be used to form the next step
  Hessian Eigenvalues:
     0.000450    0.491116    0.549399    1.196235

 Minimum Search - Taking Simple RFO Step
 Searching for Lamda that Minimizes Along All modes
 Value Taken    Lamda =  -0.00004068
 Step Taken.  Stepsize is  0.277783

                             Maximum     Tolerance    Cnvgd?
         Gradient           0.000990      0.000300      NO
[...]
 RMS gradient           =       6.772E-06
 Gradient time:  CPU 2.05 s  wall 0.26 s
 Geometry Optimization Parameters
   NAtoms,    NIC,     NZ,  NCons,   NDum,   NFix, NCnnct, MaxDiis
        5      25       0       0       0       0       0       0

 Cartesian Hessian Update
 Hessian Updated using BFGS Update


** GEOMETRY OPTIMIZATION IN DELOCALIZED INTERNAL COORDINATES **
   Searching for a Minimum

   Optimization Cycle:  29

                       Coordinates (Angstroms)
     ATOM                X               Y               Z
      1  C         0.8856322066    0.0000000000    0.0000000000
      2  N        -0.2715278609    0.0000000000    0.0000000000
      3  H         1.9547594455    0.0000000000    0.0000000000
      4  H        -5.5544318956   -0.3713507339    0.0000000000
      5  H        -5.5544318956    0.3713507339    0.0000000000
   Point Group: c1    Number of degrees of freedom:     9


   Energy is    -94.603097054

 Hessian Updated using BFGS Update

  4 Hessian modes will be used to form the next step
  Hessian Eigenvalues:
     0.000027    0.419427    0.533406    1.196941
**WARNING** Magnitude of eigenvalue   1 too small.  Replaced by     0.000100

 Minimum Search - Taking Simple RFO Step
 Searching for Lamda that Minimizes Along All modes
 Value Taken    Lamda =  -0.00000124
 Step Taken.  Stepsize is  0.110142

                             Maximum     Tolerance    Cnvgd?
         Gradient           0.000010      0.000300     YES
         Displacement       0.080830      0.001200      NO
         Energy change     -0.000002      0.000001      NO


 New Cartesian Coordinates Obtained by Inverse Iteration

 Displacement from previous Coordinates is:  0.085608
 ----------------------------------------------------------------
             Standard Nuclear Orientation (Angstroms)
    I     Atom           X                Y                Z
 ----------------------------------------------------------------
    1      C       0.9021737313     0.0000000000     0.0000000000
    2      N      -0.2549852886     0.0000000000     0.0000000000
    3      H       1.9713008679     0.0000000000     0.0000000000
    4      H      -5.5792446553    -0.3713573651     0.0000000000
    5      H      -5.5792446553     0.3713573651     0.0000000000
 ----------------------------------------------------------------
 Nuclear Repulsion Energy =    27.0592563999 hartrees
 There are        8 alpha and        8 beta electrons
 Applying Cartesian multipole field
    Component          Value
    ---------          -----
     (2,0,0)        1.00000E-11
     (0,2,0)        2.00000E-10
     (0,0,2)       -3.00000E-10
 Nucleus-field energy     =     0.0000000027 hartrees
 Requested basis set is 6-31G(d,p)
 There are 17 shells and 45 basis functions
 A cutoff of  1.0D-11 yielded    113 shell pairs
 There are       874 function pairs
 Smallest overlap matrix eigenvalue = 3.00E-03
 Guess MOs from SCF MO coefficient file

 -----------------------------------------------------------------------
  General SCF calculation program by
  Eric Jon Sundstrom, Paul Horn, Yuezhi Mao, Dmitri Zuev, Alec White,
  David Stuck, Shaama M.S., Shane Yost, Joonho Lee, David Small,
  Daniel Levine, Susi Lehtola, Hugh Burton, Evgeny Epifanovsky
 -----------------------------------------------------------------------
 Exchange:     0.2000 Hartree-Fock + 0.0800 Slater + 0.7200 B88
 Correlation:  0.1900 VWN1RPA + 0.8100 LYP
 Using SG-1 standard quadrature grid
 using 8 threads for integral computing
 -------------------------------------------------------
 OpenMP Integral computing Module                
 Release: version 1.0, May 2013, Q-Chem Inc. Pittsburgh 
 -------------------------------------------------------
 -------------------------------------------------------
 OpenMP BLAS3 based DFT computing Module                
 Release: version 1.0, May 2013, Q-Chem Inc. Pittsburgh 
 -------------------------------------------------------
 A restricted SCF calculation will be
 performed using DIIS
 SCF converges when DIIS error is below 1.0e-08
 ---------------------------------------
  Cycle       Energy         DIIS error
 ---------------------------------------
    1     -94.6030982116      3.28e-06  
    2     -94.6030982161      3.74e-07  
    3     -94.6030982159      9.76e-07  
    4     -94.6030982161      1.19e-08  
    5     -94.6030982161      1.65e-09  Convergence criterion met
 ---------------------------------------
 SCF time:   CPU 1.46s  wall 0.00s 
 SCF   energy in the final basis set =      -94.6030982161
 Total energy in the final basis set =      -94.6030982161
 
 --------------------------------------------------------------
 
                    Orbital Energies (a.u.)
 --------------------------------------------------------------
 
 Alpha MOs
 -- Occupied --
-14.360 -10.246  -0.920  -0.608  -0.423  -0.380  -0.359  -0.359
 -- Virtual --
  0.019   0.019   0.082   0.109   0.278   0.520   0.520   0.585
  0.634   0.690   0.770   0.770   0.802   1.044   1.080   1.437
  1.437   1.439   1.506   1.507   1.683   1.683   1.949   1.949
  2.110   2.110   2.387   2.388   2.624   2.624   2.842   2.842
  2.859   3.522   3.849   4.162   4.694
 --------------------------------------------------------------
 
          Ground-State Mulliken Net Atomic Charges

     Atom                 Charge (a.u.)
  ----------------------------------------
      1 C                     0.159313
      2 N                    -0.368131
      3 H                     0.208818
      4 H                     0.000000
      5 H                     0.000000
  ----------------------------------------
  Sum of atomic charges =    -0.000000

 -----------------------------------------------------------------
                    Cartesian Multipole Moments
 -----------------------------------------------------------------
    Charge (ESU x 10^10)
                 0.0000
    Dipole Moment (Debye)
         X       2.8944      Y      -0.0000      Z       0.0000
       Tot       2.8944
    Quadrupole Moments (Debye-Ang)
        XX      -9.3061     XY       0.0000     YY     -12.8917
        XZ       0.0000     YZ      -0.0000     ZZ     -13.4130
    Octopole Moments (Debye-Ang^2)
       XXX      30.9424    XXY      -0.0000    XYY       3.9987
       YYY      -0.0000    XXZ       0.0000    XYZ       0.0000
       YYZ       0.0000    XZZ       6.9068    YZZ       0.0000
       ZZZ       0.0000
    Hexadecapole Moments (Debye-Ang^3)
      XXXX    -414.8504   XXXY       0.0000   XXYY     -58.1034
      XYYY      -0.0000   YYYY     -13.0491   XXXZ      -0.0000
      XXYZ      -0.0000   XYYZ       0.0000   YYYZ       0.0000
      XXZZ     -74.1637   XYZZ      -0.0000   YYZZ      -4.2159
      XZZZ       0.0000   YZZZ       0.0000   ZZZZ     -12.1572
 -----------------------------------------------------------------
 Calculating analytic gradient of the SCF energy
 Gradient of SCF Energy
            1           2           3           4           5
    1  -0.0000001  -0.0000118  -0.0000006   0.0000063   0.0000063
    2   0.0000000   0.0000000   0.0000000   0.0000036  -0.0000036
    3  -0.0000000   0.0000000   0.0000000  -0.0000000   0.0000000
 Max gradient component =       1.177E-05
 RMS gradient           =       4.032E-06
 Gradient time:  CPU 2.04 s  wall 0.26 s
 Geometry Optimization Parameters
   NAtoms,    NIC,     NZ,  NCons,   NDum,   NFix, NCnnct, MaxDiis
        5      25       0       0       0       0       0       0

 Cartesian Hessian Update
 Hessian Updated using BFGS Update


** GEOMETRY OPTIMIZATION IN DELOCALIZED INTERNAL COORDINATES **
   Searching for a Minimum

   Optimization Cycle:  30

                       Coordinates (Angstroms)
     ATOM                X               Y               Z
      1  C         0.9021737313    0.0000000000    0.0000000000
      2  N        -0.2549852886    0.0000000000    0.0000000000
      3  H         1.9713008679    0.0000000000    0.0000000000
      4  H        -5.5792446553   -0.3713573651    0.0000000000
      5  H        -5.5792446553    0.3713573651    0.0000000000
   Point Group: c1    Number of degrees of freedom:     9


   Energy is    -94.603098216

 Hessian Updated using BFGS Update

  4 Hessian modes will be used to form the next step
  Hessian Eigenvalues:
     0.000020    0.419316    0.533396    1.196951
**WARNING** Magnitude of eigenvalue   1 too small.  Replaced by     0.000100

 Minimum Search - Taking Simple RFO Step
 Searching for Lamda that Minimizes Along All modes
 Value Taken    Lamda =   0.00000000
 Step Taken.  Stepsize is  0.089009

                             Maximum     Tolerance    Cnvgd?
         Gradient           0.000006      0.000300     YES
         Displacement       0.065320      0.001200      NO
         Energy change     -0.000001      0.000001      NO


 New Cartesian Coordinates Obtained by Inverse Iteration

 Displacement from previous Coordinates is:  0.069183
 ----------------------------------------------------------------
             Standard Nuclear Orientation (Angstroms)
    I     Atom           X                Y                Z
 ----------------------------------------------------------------
    1      C       0.9155415874     0.0000000000     0.0000000000
    2      N      -0.2416176020     0.0000000000     0.0000000000
    3      H       1.9846695062     0.0000000000     0.0000000000
    4      H      -5.5992967458    -0.3713592245     0.0000000000
    5      H      -5.5992967458     0.3713592245     0.0000000000
 ----------------------------------------------------------------
 Nuclear Repulsion Energy =    27.0450132527 hartrees
 There are        8 alpha and        8 beta electrons
 Applying Cartesian multipole field
    Component          Value
    ---------          -----
     (2,0,0)        1.00000E-11
     (0,2,0)        2.00000E-10
     (0,0,2)       -3.00000E-10
 Nucleus-field energy     =     0.0000000028 hartrees
 Requested basis set is 6-31G(d,p)
 There are 17 shells and 45 basis functions
 A cutoff of  1.0D-11 yielded    113 shell pairs
 There are       874 function pairs
 Smallest overlap matrix eigenvalue = 3.00E-03
 Guess MOs from SCF MO coefficient file

 -----------------------------------------------------------------------
  General SCF calculation program by
  Eric Jon Sundstrom, Paul Horn, Yuezhi Mao, Dmitri Zuev, Alec White,
  David Stuck, Shaama M.S., Shane Yost, Joonho Lee, David Small,
  Daniel Levine, Susi Lehtola, Hugh Burton, Evgeny Epifanovsky
 -----------------------------------------------------------------------
 Exchange:     0.2000 Hartree-Fock + 0.0800 Slater + 0.7200 B88
 Correlation:  0.1900 VWN1RPA + 0.8100 LYP
 Using SG-1 standard quadrature grid
 using 8 threads for integral computing
 -------------------------------------------------------
 OpenMP Integral computing Module                
 Release: version 1.0, May 2013, Q-Chem Inc. Pittsburgh 
 -------------------------------------------------------
 -------------------------------------------------------
 OpenMP BLAS3 based DFT computing Module                
 Release: version 1.0, May 2013, Q-Chem Inc. Pittsburgh 
 -------------------------------------------------------
 A restricted SCF calculation will be
 performed using DIIS
 SCF converges when DIIS error is below 1.0e-08
 ---------------------------------------
  Cycle       Energy         DIIS error
 ---------------------------------------
    1     -94.6030989880      2.46e-06  
    2     -94.6030989905      2.87e-07  
    3     -94.6030989904      7.52e-07  
    4     -94.6030989905      1.08e-08  
    5     -94.6030989905      2.94e-09  Convergence criterion met
 ---------------------------------------
 SCF time:   CPU 1.49s  wall 0.00s 
 SCF   energy in the final basis set =      -94.6030989905
 Total energy in the final basis set =      -94.6030989905
 
 --------------------------------------------------------------
 
                    Orbital Energies (a.u.)
 --------------------------------------------------------------
 
 Alpha MOs
 -- Occupied --
-14.360 -10.246  -0.920  -0.608  -0.423  -0.380  -0.359  -0.359
 -- Virtual --
  0.019   0.019   0.082   0.109   0.278   0.520   0.520   0.585
  0.634   0.690   0.770   0.770   0.802   1.044   1.080   1.437
  1.437   1.439   1.506   1.507   1.683   1.683   1.949   1.949
  2.110   2.110   2.387   2.388   2.624   2.624   2.842   2.842
  2.859   3.522   3.849   4.161   4.694
 --------------------------------------------------------------
 
          Ground-State Mulliken Net Atomic Charges

     Atom                 Charge (a.u.)
  ----------------------------------------
      1 C                     0.159314
      2 N                    -0.368135
      3 H                     0.208820
      4 H                     0.000000
      5 H                     0.000000
  ----------------------------------------
  Sum of atomic charges =     0.000000

 -----------------------------------------------------------------
                    Cartesian Multipole Moments
 -----------------------------------------------------------------
    Charge (ESU x 10^10)
                 0.0000
    Dipole Moment (Debye)
         X       2.8944      Y       0.0000      Z       0.0000
       Tot       2.8944
    Quadrupole Moments (Debye-Ang)
        XX      -9.2284     XY      -0.0000     YY     -12.8917
        XZ       0.0000     YZ      -0.0000     ZZ     -13.4130
    Octopole Moments (Debye-Ang^2)
       XXX      30.7734    XXY       0.0000    XYY       3.8767
       YYY       0.0000    XXZ       0.0000    XYZ       0.0000
       YYZ       0.0000    XZZ       6.7953    YZZ       0.0000
       ZZZ       0.0000
    Hexadecapole Moments (Debye-Ang^3)
      XXXX    -417.7513   XXXY      -0.0000   XXYY     -58.5613
      XYYY      -0.0000   YYYY     -13.0491   XXXZ      -0.0000
      XXYZ      -0.0000   XYYZ       0.0000   YYYZ       0.0000
      XXZZ     -74.7386   XYZZ      -0.0000   YYZZ      -4.2159
      XZZZ       0.0000   YZZZ       0.0000   ZZZZ     -12.1572
 -----------------------------------------------------------------
 Calculating analytic gradient of the SCF energy
 Gradient of SCF Energy
            1           2           3           4           5
    1   0.0000002  -0.0000107  -0.0000000   0.0000053   0.0000053
    2   0.0000000   0.0000000   0.0000000   0.0000020  -0.0000020
    3  -0.0000000   0.0000000   0.0000000  -0.0000000   0.0000000
 Max gradient component =       1.071E-05
 RMS gradient           =       3.444E-06
 Gradient time:  CPU 2.05 s  wall 0.26 s
 Geometry Optimization Parameters
   NAtoms,    NIC,     NZ,  NCons,   NDum,   NFix, NCnnct, MaxDiis
        5      25       0       0       0       0       0       0

 Cartesian Hessian Update
 Hessian Updated using BFGS Update


** GEOMETRY OPTIMIZATION IN DELOCALIZED INTERNAL COORDINATES **
   Searching for a Minimum

   Optimization Cycle:  31

                       Coordinates (Angstroms)
     ATOM                X               Y               Z
      1  C         0.9155415874    0.0000000000    0.0000000000
      2  N        -0.2416176020    0.0000000000    0.0000000000
      3  H         1.9846695062    0.0000000000    0.0000000000
      4  H        -5.5992967458   -0.3713592245    0.0000000000
      5  H        -5.5992967458    0.3713592245    0.0000000000
   Point Group: c1    Number of degrees of freedom:     9


   Energy is    -94.603098991

 Hessian Updated using BFGS Update

  4 Hessian modes will be used to form the next step
  Hessian Eigenvalues:
     0.000016    0.419277    0.533394    1.196954
**WARNING** Magnitude of eigenvalue   1 too small.  Replaced by     0.000100

 Minimum Search - Taking Simple RFO Step
 Searching for Lamda that Minimizes Along All modes
 Value Taken    Lamda =   0.00000000
 Step Taken.  Stepsize is  0.074791

                             Maximum     Tolerance    Cnvgd?
         Gradient           0.000006      0.000300     YES
         Displacement       0.054886      0.001200      NO
         Energy change     -0.000001      0.000001     YES


                       Distance Matrix (Angstroms)
             C (  1)   N (  2)   H (  3)   H (  4)
   N (  2)  1.157159
   H (  3)  1.069128  2.226287
   H (  4)  6.525414  5.370534  7.593053
   H (  5)  6.525414  5.370534  7.593053  0.742718
 
 Final energy is   -94.6030989905294     


 ******************************
 **  OPTIMIZATION CONVERGED  **
 ******************************

                       Coordinates (Angstroms)
     ATOM                X               Y               Z
      1  C         0.9155415874    0.0000000000    0.0000000000
      2  N        -0.2416176020    0.0000000000    0.0000000000
      3  H         1.9846695062    0.0000000000    0.0000000000
      4  H        -5.5992967458   -0.3713592245    0.0000000000
      5  H        -5.5992967458    0.3713592245    0.0000000000

Z-matrix Print:
$molecule
0 1
C 
H  1 1.069128
N  1 1.157159 2 180.000000
H  3 5.370534 1 176.034974 2 0.000000 0
H  4 0.742718 3 86.034974 1 0.000000 0
$end

 
 --------------------------------------------------------------
 
                    Orbital Energies (a.u.)
 --------------------------------------------------------------
 
 Alpha MOs
 -- Occupied --
-14.360 -10.246  -0.920  -0.608  -0.423  -0.380  -0.359  -0.359
 -- Virtual --
  0.019   0.019   0.082   0.109   0.278   0.520   0.520   0.585
  0.634   0.690   0.770   0.770   0.802   1.044   1.080   1.437
  1.437   1.439   1.506   1.507   1.683   1.683   1.949   1.949
  2.110   2.110   2.387   2.388   2.624   2.624   2.842   2.842
  2.859   3.522   3.849   4.161   4.694
 --------------------------------------------------------------
 
          Ground-State Mulliken Net Atomic Charges

     Atom                 Charge (a.u.)
  ----------------------------------------
      1 C                     0.159314
      2 N                    -0.368135
      3 H                     0.208820
      4 H                     0.000000
      5 H                     0.000000
  ----------------------------------------
  Sum of atomic charges =     0.000000

 -----------------------------------------------------------------
                    Cartesian Multipole Moments
 -----------------------------------------------------------------
    Charge (ESU x 10^10)
                 0.0000
    Dipole Moment (Debye)
         X       2.8944      Y       0.0000      Z       0.0000
       Tot       2.8944
    Quadrupole Moments (Debye-Ang)
        XX      -9.2284     XY      -0.0000     YY     -12.8917
        XZ       0.0000     YZ      -0.0000     ZZ     -13.4130
    Octopole Moments (Debye-Ang^2)
       XXX      30.7734    XXY       0.0000    XYY       3.8767
       YYY       0.0000    XXZ       0.0000    XYZ       0.0000
       YYZ       0.0000    XZZ       6.7953    YZZ       0.0000
       ZZZ       0.0000
    Hexadecapole Moments (Debye-Ang^3)
      XXXX    -417.7513   XXXY      -0.0000   XXYY     -58.5613
      XYYY      -0.0000   YYYY     -13.0491   XXXZ      -0.0000
      XXYZ      -0.0000   XYYZ       0.0000   YYYZ       0.0000
      XXZZ     -74.7386   XYZZ      -0.0000   YYZZ      -4.2159
      XZZZ       0.0000   YZZZ       0.0000   ZZZZ     -12.1572
 -----------------------------------------------------------------
Archival summary:
1\1\node1\OPT\ProcedureUnspecified\6-31G**\113\songzl\ThuApr613:57:102023ThuApr613:57:102023\0\\#,OPT,ProcedureUnspecified,6-31G**,\\0,1\C\H,1,1.06913\N,1,1.15716,2,180\H,3,5.37053,1,176.035,2,0,0\H,4,0.742718,3,86.035,1,0,0\\\@

 Total job time:  17.57s(wall), 138.33s(cpu) 
 Thu Apr  6 13:57:10 2023

        *************************************************************
        *                                                           *
        *  Thank you very much for using Q-Chem.  Have a nice day.  *
        *                                                           *
        *************************************************************


