
Running Job 1 of 1 baker_set_reactant.inp
qchem baker_set_reactant.inp_29048.0 /tmp/songzl/qchem_baker_set/qchem29048/ 1
/apps/apps/qchem/qc51/exe/qcprog.exe_s baker_set_reactant.inp_29048.0 /tmp/songzl/qchem_baker_set/qchem29048/
Check license passed

                  Welcome to Q-Chem
     A Quantum Leap Into The Future Of Chemistry


 Q-Chem 5.1, Q-Chem, Inc., Pleasanton, CA (2018)

 Yihan Shao,  Zhengting Gan,  E. Epifanovsky,  A. T. B. Gilbert,  M. Wormit,  
 J. Kussmann,  A. W. Lange,  A. Behn,  Jia Deng,  Xintian Feng,  D. Ghosh,  
 M. Goldey,  P. R. Horn,  L. D. Jacobson,  I. Kaliman,  T. Kus,  A. Landau,  
 Jie Liu,  E. I. Proynov,  R. M. Richard,  R. P. Steele,  E. J. Sundstrom,  
 H. L. Woodcock III,  P. M. Zimmerman,  D. Zuev,  B. Albrecht,  E. Alguire,  
 S. A. Baeppler,  D. Barton,  Z. Benda,  Y. A. Bernard,  E. J. Berquist,  
 K. B. Bravaya,  H. Burton,  D. Casanova,  Chun-Min Chang,  Yunqing Chen,  
 A. Chien,  K. D. Closser,  M. P. Coons,  S. Coriani,  S. Dasgupta,  
 A. L. Dempwolff,  M. Diedenhofen,  Hainam Do,  R. G. Edgar,  Po-Tung Fang,  
 S. Faraji,  S. Fatehi,  Qingguo Feng,  K. D. Fenk,  J. Fosso-Tande,  
 Qinghui Ge,  A. Ghysels,  G. Gidofalvi,  J. Gomes,  J. Gonthier,  A. Gunina,  
 D. Hait,  M. W. D. Hanson-Heine,  P. H. P. Harbach,  A. W. Hauser,  
 J. E. Herr,  E. G. Hohenstein,  Z. C. Holden,  Kerwin Hui,  B. C. Huynh,  
 T.-C. Jagau,  Hyunjun Ji,  B. Kaduk,  K. Khistyaev,  Jaehoon Kim,  
 P. Klunzinger,  K. Koh,  D. Kosenkov,  L. Koulias,  T. Kowalczyk,  
 C. M. Krauter,  A. Kunitsa,  Ka Un Lao,  A. Laurent,  K. V. Lawler,  
 Joonho Lee,  D. Lefrancois,  S. Lehtola,  D. S. Levine,  Yi-Pei Li,  
 You-Sheng Lin,  Fenglai Liu,  E. Livshits,  A. Luenser,  P. Manohar,  
 E. Mansoor,  S. F. Manzer,  Shan-Ping Mao,  Yuezhi Mao,  N. Mardirossian,  
 A. V. Marenich,  T. Markovich,  L. A. Martinez-Martinez,  S. A. Maurer,  
 N. J. Mayhall,  S. C. McKenzie,  J.-M. Mewes,  A. F. Morrison,  
 J. W. Mullinax,  K. Nanda,  T. S. Nguyen-Beck,  R. Olivares-Amaya,  
 J. A. Parkhill,  T. M. Perrine,  F. Plasser,  P. Pokhilko,  S. Prager,  
 A. Prociuk,  E. Ramos,  D. R. Rehn,  F. Rob,  M. Schneider,  N. Sergueev,  
 S. M. Sharada,  S. Sharma,  D. W. Small,  T. Stauch,  T. Stein,  
 Yu-Chuan Su,  A. J. W. Thom,  A. Tkatchenko,  T. Tsuchimochi,  N. M. Tubman,  
 L. Vogt,  M. L. Vidal,  O. Vydrov,  M. A. Watson,  J. Wenzel,  
 M. de Wergifosse,  T. A. Wesolowski,  A. White,  J. Witte,  A. Yamada,  
 Jun Yang,  K. Yao,  S. Yeganeh,  S. R. Yost,  Zhi-Qiang You,  A. Zech,  
 Igor Ying Zhang,  Xing Zhang,  Yan Zhao,  Ying Zhu,  B. R. Brooks,  
 G. K. L. Chan,  C. J. Cramer,  M. S. Gordon,  W. J. Hehre,  A. Klamt,  
 M. W. Schmidt,  C. D. Sherrill,  D. G. Truhlar,  A. Aspuru-Guzik,  R. Baer,  
 A. T. Bell,  N. A. Besley,  Jeng-Da Chai,  A. E. DePrince, III,  
 R. A. DiStasio Jr.,  A. Dreuw,  B. D. Dunietz,  T. R. Furlani,  
 Chao-Ping Hsu,  Yousung Jung,  Jing Kong,  D. S. Lambrecht,  WanZhen Liang,  
 C. Ochsenfeld,  V. A. Rassolov,  L. V. Slipchenko,  J. E. Subotnik,  
 T. Van Voorhis,  J. M. Herbert,  A. I. Krylov,  P. M. W. Gill,  M. Head-Gordon

 Contributors to earlier versions of Q-Chem not listed above: 
 R. D. Adamson,  B. Austin,  J. Baker,  G. J. O. Beran,  K. Brandhorst,  
 S. T. Brown,  E. F. C. Byrd,  A. K. Chakraborty,  C.-L. Cheng,  
 Siu Hung Chien,  D. M. Chipman,  D. L. Crittenden,  H. Dachsel,  
 R. J. Doerksen,  A. D. Dutoi,  L. Fusti-Molnar,  W. A. Goddard III,  
 A. Golubeva-Zadorozhnaya,  S. R. Gwaltney,  G. Hawkins,  A. Heyden,  
 S. Hirata,  G. Kedziora,  F. J. Keil,  C. Kelley,  Jihan Kim,  R. A. King,  
 R. Z. Khaliullin,  P. P. Korambath,  W. Kurlancheek,  A. M. Lee,  M. S. Lee,  
 S. V. Levchenko,  Ching Yeh Lin,  D. Liotard,  R. C. Lochan,  I. Lotan,  
 P. E. Maslen,  N. Nair,  D. P. O'Neill,  D. Neuhauser,  E. Neuscamman,  
 C. M. Oana,  R. Olson,  B. Peters,  R. Peverati,  P. A. Pieniazek,  
 Y. M. Rhee,  J. Ritchie,  M. A. Rohrdanz,  E. Rosta,  N. J. Russ,  
 H. F. Schaefer III,  N. E. Schultz,  N. Shenvi,  A. C. Simmonett,  A. Sodt,  
 D. Stuck,  K. S. Thanthiriwatte,  V. Vanovschi,  Tao Wang,  A. Warshel,  
 C. F. Williams,  Q. Wu,  X. Xu,  W. Zhang

 Please cite Q-Chem as follows:
 Y. Shao et al., Mol. Phys. 113, 184-215 (2015)
 DOI: 10.1080/00268976.2014.952696

 Q-Chem 5.1.1 for Intel X86 EM64T Linux

 Parts of Q-Chem use Armadillo 8.300.2 (Tropical Shenanigans).
 http://arma.sourceforge.net/

 Q-Chem begins on Thu Apr  6 12:22:23 2023  

Host: 
0

     Scratch files written to /tmp/songzl/qchem_baker_set/qchem29048//
 Aug318 |scratch|qcdevops|jenkins|workspace|build_RNUM 6609   
Processing $rem in /apps/apps/qchem/qc51/config/preferences.
 MEM_TOTAL  1000 
The previous job contains 0 fragments, simply inherited here
Input Ideriv = 2
Curr. Ideriv = -1
Max.  Ideriv = 2

Checking the input file for inconsistencies... 	...done.

--------------------------------------------------------------
User input:
--------------------------------------------------------------
$molecule
READ ./zmat.inp
$end

$rem
mem_total               230000
mem_static              2048
job_type                optimization
basis                   6-31g**
method                  b3lyp
symmetry                false
sym_ignore              true
geom_opt_max_cycles     500
$end
--------------------------------------------------------------
 ----------------------------------------------------------------
             Standard Nuclear Orientation (Angstroms)
    I     Atom           X                Y                Z
 ----------------------------------------------------------------
    1      C       0.0000000000     0.0000000000     0.0000000000
    2      O       0.0000000000     0.0000000000     1.2500000000
    3      H       4.0000000000     0.0000000000     0.0000000000
    4      H       2.0000000000     0.0000000000    -3.4641016151
 ----------------------------------------------------------------
 Nuclear Repulsion Energy =    23.8771166092 hartrees
 There are        8 alpha and        8 beta electrons
 Requested basis set is 6-31G(d,p)
 There are 14 shells and 40 basis functions

 Total QAlloc Memory Limit 230000 MB
 Mega-Array Size      2002 MB
 MEM_STATIC part      2048 MB
 A cutoff of  1.0D-11 yielded     87 shell pairs
 There are       745 function pairs
 
 -------------------------------------------------------
 OpenMP Integral Computing Module                       
 Release: version 1.0, May 2013, Q-Chem Inc. Pittsburgh 
 -------------------------------------------------------
 Integral Job Info:
 Integral job number is                      11
 Integral operator is                         1
 short-range coefficients                     0
 long-range coefficients              100000000
 Omega coefficients                           0
 if combine SR and LR in K                    0
 Integral screening is                        0
 Integral computing path is                   2
 max size of driver memory is            800000
 size of driver memory is                593474
 size of scratch memory is              2361544
 max col of scratch BK array               1296
 max len of scratch array in speh3          155
 max len of scratch index in speh4           18
 max int batch size is                      520
 min int batch size is                       52
 fixed nKL is                                52
 max L of basis functions is                  2
 order of int derivative is                   0
 number of shells is                         14
 number of basis is                          40
 number of cartesian basis is                40
 number of contracted shell pairs            87
 number of primitive shell pairs            362
 maxK2 (contraction) of shell pair           36
 max number of K2 of shell pair               1
 max number of CS2 of shell pair              7
 max number of PS2 of shell pair             72
 mem total for path MDJ                  509160
 -------------------------------------------------------
 Smallest overlap matrix eigenvalue = 1.03E-02

 Scale SEOQF with 1.000000e-01/1.000000e+00/1.000000e-01

 Standard Electronic Orientation quadrupole field applied
 Nucleus-field energy     =    -0.0000000019 hartrees
 Guess from superposition of atomic densities
 Warning:  Energy on first SCF cycle will be non-variational
 SAD guess density has 16.000000 electrons

 -----------------------------------------------------------------------
  General SCF calculation program by
  Eric Jon Sundstrom, Paul Horn, Yuezhi Mao, Dmitri Zuev, Alec White,
  David Stuck, Shaama M.S., Shane Yost, Joonho Lee, David Small,
  Daniel Levine, Susi Lehtola, Hugh Burton, Evgeny Epifanovsky
 -----------------------------------------------------------------------
 Exchange:     0.2000 Hartree-Fock + 0.0800 Slater + 0.7200 B88
 Correlation:  0.1900 VWN1RPA + 0.8100 LYP
 Using SG-1 standard quadrature grid
 using 8 threads for integral computing
 -------------------------------------------------------
 OpenMP Integral computing Module                
 Release: version 1.0, May 2013, Q-Chem Inc. Pittsburgh 
 -------------------------------------------------------
 -------------------------------------------------------
 OpenMP BLAS3 based DFT computing Module                
 Release: version 1.0, May 2013, Q-Chem Inc. Pittsburgh 
 -------------------------------------------------------
 A restricted SCF calculation will be
 performed using DIIS
 SCF converges when DIIS error is below 1.0e-08
 ---------------------------------------
  Cycle       Energy         DIIS error
 ---------------------------------------
    1    -114.1501539047      8.30e-02  
    2    -114.1524224629      1.58e-02  
    3    -113.7486817400      5.20e-02  
    4    -113.9636182124      1.39e-02  
    5    -113.9511158028      1.38e-02  
    6    -114.1201523908      1.07e-02  
    7    -113.8773182262      1.25e-02  
    8    -114.0054348630      1.38e-02  
    9    -114.0378543103      1.35e-02  
   10    -113.9616643035      1.38e-02  
   11    -114.0538483361      1.33e-02  
   12    -113.9789048037      1.39e-02  
   13    -114.0734944462      1.28e-02  
   14    -114.0804833562      1.25e-02  
   15    -114.1456131997      9.02e-03  
   16    -114.1843079923      4.01e-03  
   17    -114.1813268628      4.66e-03  
   18    -114.1924100927      7.05e-04  
   19    -114.1926584209      7.42e-05  
   20    -114.1926608706      2.52e-05  
   21    -114.1926611921      7.50e-08  
   22    -114.1926611921      1.20e-08  
   23    -114.1926611921      3.37e-08  
   24    -114.1926611921      1.02e-09  Convergence criterion met
 ---------------------------------------
 SCF time:   CPU 6.62s  wall 1.00s 
 SCF   energy in the final basis set =     -114.1926611921
 Total energy in the final basis set =     -114.1926611921
 
 --------------------------------------------------------------
 
                    Orbital Energies (a.u.)
 --------------------------------------------------------------
 
 Alpha MOs
 -- Occupied --
-19.258 -10.337  -1.097  -0.570  -0.432  -0.432  -0.380  -0.248
 -- Virtual --
 -0.217  -0.061  -0.061   0.240   0.511   0.514   0.563   0.598
  0.747   0.766   0.813   0.914   0.915   1.330   1.473   1.473
  1.517   1.517   1.889   1.889   1.991   1.991   1.991   1.992
  1.992   1.992   2.195   2.479   2.479   2.815   3.579   3.879
 --------------------------------------------------------------
 
          Ground-State Mulliken Net Atomic Charges

     Atom                 Charge (a.u.)
  ----------------------------------------
      1 C                     0.246128
      2 O                    -0.248537
      3 H                    -0.002385
      4 H                     0.004794
  ----------------------------------------
  Sum of atomic charges =    -0.000000

 -----------------------------------------------------------------
                    Cartesian Multipole Moments
 -----------------------------------------------------------------
    Charge (ESU x 10^10)
                -0.0000
    Dipole Moment (Debye)
         X       0.0024      Y       0.0000      Z      -0.3932
       Tot       0.3932
    Quadrupole Moments (Debye-Ang)
        XX     -12.8838     XY      -0.0000     YY     -12.8677
        XZ      -0.0754     YZ       0.0000     ZZ     -14.7177
    Octopole Moments (Debye-Ang^2)
       XXX     -24.8257    XXY       0.0000    XYY      -8.3038
       YYY       0.0000    XXZ      -1.2798    XYZ      -0.0000
       YYZ      -1.3926    XZZ      -7.5528    YZZ       0.0000
       ZZZ      -7.7843
    Hexadecapole Moments (Debye-Ang^3)
      XXXX    -176.2291   XXXY      -0.0000   XXYY     -31.4280
      XYYY      -0.0000   YYYY     -11.2379   XXXZ      29.7385
      XXYZ      -0.0000   XYYZ       9.5681   YYYZ       0.0000
      XXZZ     -55.0132   XYZZ       0.0000   YYZZ     -28.3896
      XZZZ      25.2715   YZZZ       0.0000   ZZZZ    -154.1671
 -----------------------------------------------------------------
 Calculating analytic gradient of the SCF energy
 Gradient of SCF Energy
            1           2           3           4
    1  -0.0001610   0.0000030   0.0032910  -0.0031331
    2   0.0000000  -0.0000000   0.0000000  -0.0000000
    3  -0.1824461   0.1825572   0.0055131  -0.0056242
 Max gradient component =       1.826E-01
 RMS gradient           =       7.455E-02
 Gradient time:  CPU 2.14 s  wall 0.27 s
 Geometry Optimization Parameters
   NAtoms,    NIC,     NZ,  NCons,   NDum,   NFix, NCnnct, MaxDiis
        4      27       4       0       0       0       0       0


** GEOMETRY OPTIMIZATION IN DELOCALIZED INTERNAL COORDINATES **
   Searching for a Minimum

   Optimization Cycle:   1

                       Coordinates (Angstroms)
     ATOM                X               Y               Z
      1  C         0.0000000000    0.0000000000    0.0000000000
      2  O         0.0000000000    0.0000000000    1.2500000000
      3  H         4.0000000000    0.0000000000    0.0000000000
      4  H         2.0000000000    0.0000000000   -3.4641016151
   Point Group: c1    Number of degrees of freedom:     6


   Energy is   -114.192661192


 Attempting to Generate Delocalized Internal Coordinates

  5 Hessian modes will be used to form the next step
  Hessian Eigenvalues:
     0.004362    0.010407    0.018143    0.089026    0.796079

 Minimum Search - Taking Simple RFO Step
 Searching for Lamda that Minimizes Along All modes
 Value Taken    Lamda =  -0.03878066
 Step Taken.  Stepsize is  0.252168

                             Maximum     Tolerance    Cnvgd?
         Gradient           0.106086      0.000300      NO
         Displacement       0.156501      0.001200      NO
         Energy change     *********      0.000001      NO


 New Cartesian Coordinates Obtained by Inverse Iteration

 Displacement from previous Coordinates is:  0.184060
 ----------------------------------------------------------------
             Standard Nuclear Orientation (Angstroms)
    I     Atom           X                Y                Z
 ----------------------------------------------------------------
    1      C      -0.0005514117     0.0000000000     0.0446409867
    2      O      -0.0004883719     0.0000000000     1.1847238394
    3      H       3.9967540944     0.0000000000    -0.0283523962
    4      H       2.0042856892     0.0000000000    -3.4151140450
 ----------------------------------------------------------------
 Nuclear Repulsion Energy =    25.8595338068 hartrees
 There are        8 alpha and        8 beta electrons
 Applying Cartesian multipole field
    Component          Value
    ---------          -----
     (2,0,0)        1.00000E-11
     (0,2,0)        2.00000E-10
     (0,0,2)       -3.00000E-11
 Nucleus-field energy     =    -0.0000000017 hartrees
 Requested basis set is 6-31G(d,p)
 There are 14 shells and 40 basis functions
 A cutoff of  1.0D-11 yielded     88 shell pairs
 There are       749 function pairs
 Smallest overlap matrix eigenvalue = 7.96E-03
 Guess MOs from SCF MO coefficient file

 -----------------------------------------------------------------------
  General SCF calculation program by
  Eric Jon Sundstrom, Paul Horn, Yuezhi Mao, Dmitri Zuev, Alec White,
  David Stuck, Shaama M.S., Shane Yost, Joonho Lee, David Small,
  Daniel Levine, Susi Lehtola, Hugh Burton, Evgeny Epifanovsky
 -----------------------------------------------------------------------
 Exchange:     0.2000 Hartree-Fock + 0.0800 Slater + 0.7200 B88
 Correlation:  0.1900 VWN1RPA + 0.8100 LYP
 Using SG-1 standard quadrature grid
 using 8 threads for integral computing
 -------------------------------------------------------
 OpenMP Integral computing Module                
 Release: version 1.0, May 2013, Q-Chem Inc. Pittsburgh 
 -------------------------------------------------------
 -------------------------------------------------------
 OpenMP BLAS3 based DFT computing Module                
 Release: version 1.0, May 2013, Q-Chem Inc. Pittsburgh 
 -------------------------------------------------------
 A restricted SCF calculation will be
 performed using DIIS
 SCF converges when DIIS error is below 1.0e-08
 ---------------------------------------
  Cycle       Energy         DIIS error
 ---------------------------------------
    1    -114.2084598581      5.62e-03  
    2    -114.2133608897      3.75e-03  
    3    -114.1626612548      1.01e-02  
    4    -114.1149805079      1.22e-02  
    5    -114.2110515499      2.96e-03  
    6    -114.1949688600      6.21e-03  
    7    -114.2155056621      3.60e-04  
    8    -114.2155689330      7.23e-05  
    9    -114.2155678106      8.62e-05  
   10    -114.2155673936      9.08e-05  
   11    -114.2155696962      6.10e-05  
   12    -114.2155715849      3.46e-06  
   13    -114.2155715909      2.02e-07  
   14    -114.2155715909      1.01e-07  
   15    -114.2155715910      7.42e-09  Convergence criterion met
 ---------------------------------------
 SCF time:   CPU 4.11s  wall 0.00s 
 SCF   energy in the final basis set =     -114.2155715910
 Total energy in the final basis set =     -114.2155715910
 
 --------------------------------------------------------------
 
                    Orbital Energies (a.u.)
 --------------------------------------------------------------
 
 Alpha MOs
 -- Occupied --
-19.257 -10.304  -1.156  -0.569  -0.466  -0.466  -0.371  -0.248
 -- Virtual --
 -0.216  -0.022  -0.022   0.263   0.509   0.512   0.572   0.743
  0.746   0.772   0.800   0.917   0.918   1.375   1.480   1.480
  1.539   1.540   1.942   1.942   1.992   1.992   1.992   1.993
  1.993   1.993   2.392   2.597   2.598   2.947   3.673   3.901
 --------------------------------------------------------------
 
          Ground-State Mulliken Net Atomic Charges

     Atom                 Charge (a.u.)
  ----------------------------------------
      1 C                     0.174538
      2 O                    -0.176638
      3 H                    -0.005143
      4 H                     0.007243
  ----------------------------------------
  Sum of atomic charges =    -0.000000

 -----------------------------------------------------------------
                    Cartesian Multipole Moments
 -----------------------------------------------------------------
    Charge (ESU x 10^10)
                -0.0000
    Dipole Moment (Debye)
         X      -0.0263      Y      -0.0000      Z      -0.0659
       Tot       0.0709
    Quadrupole Moments (Debye-Ang)
        XX     -12.8160     XY      -0.0000     YY     -12.6430
        XZ      -0.1381     YZ      -0.0000     ZZ     -14.0449
    Octopole Moments (Debye-Ang^2)
       XXX     -25.5441    XXY      -0.0000    XYY      -8.3161
       YYY      -0.0000    XXZ      -1.0440    XYZ      -0.0000
       YYZ      -1.0726    XZZ      -7.2961    YZZ       0.0000
       ZZZ      -7.2958
    Hexadecapole Moments (Debye-Ang^3)
      XXXX    -179.0183   XXXY      -0.0000   XXYY     -31.3785
      XYYY      -0.0000   YYYY     -10.9031   XXXZ      29.7832
      XXYZ      -0.0000   XYYZ       9.5990   YYYZ      -0.0000
      XXZZ     -52.9914   XYZZ       0.0000   YYZZ     -26.7677
      XZZZ      24.3896   YZZZ      -0.0000   ZZZZ    -143.1772
 -----------------------------------------------------------------
 Calculating analytic gradient of the SCF energy
 Gradient of SCF Energy
            1           2           3           4
    1  -0.0001060  -0.0000122   0.0035947  -0.0034765
    2  -0.0000000   0.0000000   0.0000000   0.0000000
    3  -0.0048942   0.0049984   0.0059710  -0.0060751
 Max gradient component =       6.075E-03
 RMS gradient           =       3.494E-03
 Gradient time:  CPU 1.99 s  wall 0.25 s
 Geometry Optimization Parameters
   NAtoms,    NIC,     NZ,  NCons,   NDum,   NFix, NCnnct, MaxDiis
        4      27       4       0       0       0       0       0

 Cartesian Hessian Update
 Hessian Updated using BFGS Update


** GEOMETRY OPTIMIZATION IN DELOCALIZED INTERNAL COORDINATES **
   Searching for a Minimum

   Optimization Cycle:   2

                       Coordinates (Angstroms)
     ATOM                X               Y               Z
      1  C        -0.0005514117    0.0000000000    0.0446409867
      2  O        -0.0004883719    0.0000000000    1.1847238394
      3  H         3.9967540944    0.0000000000   -0.0283523962
      4  H         2.0042856892    0.0000000000   -3.4151140450
   Point Group: c1    Number of degrees of freedom:     6


   Energy is   -114.215571591

 Hessian Updated using BFGS Update

  5 Hessian modes will be used to form the next step
  Hessian Eigenvalues:
     0.004353    0.010346    0.018084    0.089044    0.815987

 Minimum Search - Taking Simple RFO Step
 Searching for Lamda that Minimizes Along All modes
 Value Taken    Lamda =  -0.00371227
 Calculated Step too Large.  Step scaled by  0.516826
 Step Taken.  Stepsize is  0.300000

                             Maximum     Tolerance    Cnvgd?
         Gradient           0.006934      0.000300      NO
         Displacement       0.214969      0.001200      NO
         Energy change     -0.022910      0.000001      NO


 New Cartesian Coordinates Obtained by Inverse Iteration

 Displacement from previous Coordinates is:  0.194550
 ----------------------------------------------------------------
             Standard Nuclear Orientation (Angstroms)
    I     Atom           X                Y                Z
 ----------------------------------------------------------------
    1      C       0.0003563035     0.0000000000     0.0389326131
    2      O       0.0021626005     0.0000000000     1.1760885327
    3      H       3.9661158490     0.0000000000    -0.0871695533
    4      H       2.0313652469     0.0000000000    -3.3419532077
 ----------------------------------------------------------------
 Nuclear Repulsion Energy =    25.9541514398 hartrees
 There are        8 alpha and        8 beta electrons
 Applying Cartesian multipole field
    Component          Value
    ---------          -----
     (2,0,0)        1.00000E-11
     (0,2,0)        2.00000E-10
     (0,0,2)       -3.00000E-11
 Nucleus-field energy     =    -0.0000000017 hartrees
 Requested basis set is 6-31G(d,p)
 There are 14 shells and 40 basis functions
 A cutoff of  1.0D-11 yielded     89 shell pairs
 There are       767 function pairs
 Smallest overlap matrix eigenvalue = 7.90E-03
 Guess MOs from SCF MO coefficient file

 -----------------------------------------------------------------------
  General SCF calculation program by
  Eric Jon Sundstrom, Paul Horn, Yuezhi Mao, Dmitri Zuev, Alec White,
  David Stuck, Shaama M.S., Shane Yost, Joonho Lee, David Small,
  Daniel Levine, Susi Lehtola, Hugh Burton, Evgeny Epifanovsky
 -----------------------------------------------------------------------
 Exchange:     0.2000 Hartree-Fock + 0.0800 Slater + 0.7200 B88
 Correlation:  0.1900 VWN1RPA + 0.8100 LYP
 Using SG-1 standard quadrature grid
 using 8 threads for integral computing
 -------------------------------------------------------
 OpenMP Integral computing Module                
 Release: version 1.0, May 2013, Q-Chem Inc. Pittsburgh 
 -------------------------------------------------------
 -------------------------------------------------------
 OpenMP BLAS3 based DFT computing Module                
 Release: version 1.0, May 2013, Q-Chem Inc. Pittsburgh 
 -------------------------------------------------------
 A restricted SCF calculation will be
 performed using DIIS
 SCF converges when DIIS error is below 1.0e-08
 ---------------------------------------
  Cycle       Energy         DIIS error
 ---------------------------------------
    1    -114.2176345220      1.83e-04  
    2    -114.2176382253      1.41e-04  
    3    -114.2171813822      9.54e-04  
    4    -114.2176267082      1.97e-04  
    5    -114.2176437948      2.41e-05  
    6    -114.2176439049      1.09e-06  
    7    -114.2176439055      1.01e-07  
    8    -114.2176439055      1.44e-08  
    9    -114.2176439055      1.31e-09  Convergence criterion met
 ---------------------------------------
 SCF time:   CPU 2.49s  wall 1.00s 
 SCF   energy in the final basis set =     -114.2176439055
 Total energy in the final basis set =     -114.2176439055
 
 --------------------------------------------------------------
 
                    Orbital Energies (a.u.)
 --------------------------------------------------------------
 
 Alpha MOs
 -- Occupied --
-19.257 -10.303  -1.158  -0.569  -0.467  -0.467  -0.371  -0.250
 -- Virtual --
 -0.215  -0.021  -0.020   0.263   0.509   0.512   0.571   0.743
  0.748   0.776   0.801   0.917   0.919   1.376   1.480   1.480
  1.542   1.542   1.944   1.944   1.991   1.991   1.991   1.992
  1.992   1.993   2.398   2.601   2.601   2.952   3.676   3.902
 --------------------------------------------------------------
 
          Ground-State Mulliken Net Atomic Charges

     Atom                 Charge (a.u.)
  ----------------------------------------
      1 C                     0.172104
      2 O                    -0.174483
      3 H                    -0.005200
      4 H                     0.007578
  ----------------------------------------
  Sum of atomic charges =    -0.000000

 -----------------------------------------------------------------
                    Cartesian Multipole Moments
 -----------------------------------------------------------------
    Charge (ESU x 10^10)
                -0.0000
    Dipole Moment (Debye)
         X      -0.0217      Y      -0.0000      Z      -0.0583
       Tot       0.0622
    Quadrupole Moments (Debye-Ang)
        XX     -12.7826     XY      -0.0000     YY     -12.6416
        XZ      -0.1172     YZ      -0.0000     ZZ     -13.9870
    Octopole Moments (Debye-Ang^2)
       XXX     -25.4038    XXY      -0.0000    XYY      -8.3418
       YYY       0.0000    XXZ      -0.8435    XYZ       0.0000
       YYZ      -1.0065    XZZ      -7.2649    YZZ      -0.0000
       ZZZ      -7.2769
    Hexadecapole Moments (Debye-Ang^3)
      XXXX    -176.9110   XXXY      -0.0000   XXYY     -31.2286
      XYYY      -0.0000   YYYY     -10.9018   XXXZ      31.0853
      XXYZ       0.0000   XYYZ       9.8555   YYYZ      -0.0000
      XXZZ     -52.0852   XYZZ      -0.0000   YYZZ     -25.9947
      XZZZ      24.7409   YZZZ       0.0000   ZZZZ    -137.7671
 -----------------------------------------------------------------
 Calculating analytic gradient of the SCF energy
 Gradient of SCF Energy
            1           2           3           4
    1  -0.0000722  -0.0000350   0.0042843  -0.0041771
    2   0.0000000  -0.0000000   0.0000000   0.0000000
    3   0.0021282  -0.0020060   0.0070808  -0.0072030
 Max gradient component =       7.203E-03
 RMS gradient           =       3.493E-03
 Gradient time:  CPU 2.01 s  wall 0.25 s
 Geometry Optimization Parameters
   NAtoms,    NIC,     NZ,  NCons,   NDum,   NFix, NCnnct, MaxDiis
        4      27       4       0       0       0       0       0

 Cartesian Hessian Update
 Hessian Updated using BFGS Update
**WARNING** Hereditary positive definiteness endangered


** GEOMETRY OPTIMIZATION IN DELOCALIZED INTERNAL COORDINATES **
   Searching for a Minimum

   Optimization Cycle:   3

                       Coordinates (Angstroms)
     ATOM                X               Y               Z
      1  C         0.0003563035    0.0000000000    0.0389326131
      2  O         0.0021626005    0.0000000000    1.1760885327
      3  H         3.9661158490    0.0000000000   -0.0871695533
      4  H         2.0313652469    0.0000000000   -3.3419532077
   Point Group: c1    Number of degrees of freedom:     6


   Energy is   -114.217643906

 Hessian Updated using BFGS Update
**WARNING** Hereditary positive definiteness endangered

  5 Hessian modes will be used to form the next step
  Hessian Eigenvalues:
    -0.004496    0.006801    0.015884    0.088961    0.660729
**WARNING** Hessian does not have the Desired Local Structure

 Minimum Search - Taking Simple RFO Step
 Searching for Lamda that Minimizes Along All modes
 Value Taken    Lamda =  -0.01044430
 Calculated Step too Large.  Step scaled by  0.227947
 Step Taken.  Stepsize is  0.300000

                             Maximum     Tolerance    Cnvgd?
         Gradient           0.006622      0.000300      NO
         Displacement       0.243349      0.001200      NO
         Energy change     -0.002072      0.000001      NO


 New Cartesian Coordinates Obtained by Inverse Iteration

 Displacement from previous Coordinates is:  0.204196
 ----------------------------------------------------------------
             Standard Nuclear Orientation (Angstroms)
    I     Atom           X                Y                Z
 ----------------------------------------------------------------
    1      C      -0.0075256286     0.0000000000     0.0380714614
    2      O      -0.0019461117     0.0000000000     1.1778201643
    3      H       3.9386979644     0.0000000000    -0.1557523623
    4      H       2.0707737759     0.0000000000    -3.2742408785
 ----------------------------------------------------------------
 Nuclear Repulsion Energy =    25.9265936919 hartrees
 There are        8 alpha and        8 beta electrons
 Applying Cartesian multipole field
    Component          Value
    ---------          -----
     (2,0,0)        1.00000E-11
     (0,2,0)        2.00000E-10
     (0,0,2)       -3.00000E-11
 Nucleus-field energy     =    -0.0000000016 hartrees
 Requested basis set is 6-31G(d,p)
 There are 14 shells and 40 basis functions
 A cutoff of  1.0D-11 yielded     91 shell pairs
 There are       794 function pairs
 Smallest overlap matrix eigenvalue = 7.95E-03
 Guess MOs from SCF MO coefficient file

 -----------------------------------------------------------------------
  General SCF calculation program by
  Eric Jon Sundstrom, Paul Horn, Yuezhi Mao, Dmitri Zuev, Alec White,
  David Stuck, Shaama M.S., Shane Yost, Joonho Lee, David Small,
  Daniel Levine, Susi Lehtola, Hugh Burton, Evgeny Epifanovsky
 -----------------------------------------------------------------------
 Exchange:     0.2000 Hartree-Fock + 0.0800 Slater + 0.7200 B88
 Correlation:  0.1900 VWN1RPA + 0.8100 LYP
 Using SG-1 standard quadrature grid
 using 8 threads for integral computing
 -------------------------------------------------------
 OpenMP Integral computing Module                
 Release: version 1.0, May 2013, Q-Chem Inc. Pittsburgh 
 -------------------------------------------------------
 -------------------------------------------------------
 OpenMP BLAS3 based DFT computing Module                
 Release: version 1.0, May 2013, Q-Chem Inc. Pittsburgh 
 -------------------------------------------------------
 A restricted SCF calculation will be
 performed using DIIS
 SCF converges when DIIS error is below 1.0e-08
 ---------------------------------------
  Cycle       Energy         DIIS error
 ---------------------------------------
    1    -114.2202246399      2.13e-04  
    2    -114.2202375529      8.98e-05  
    3    -114.2202350583      1.27e-04  
    4    -114.2201770666      3.44e-04  
    5    -114.2202377363      5.11e-05  
    6    -114.2202387803      8.48e-07  
    7    -114.2202387806      1.71e-07  
    8    -114.2202387806      2.59e-08  
    9    -114.2202387806      2.19e-09  Convergence criterion met
 ---------------------------------------
 SCF time:   CPU 2.50s  wall 0.00s 
 SCF   energy in the final basis set =     -114.2202387806
 Total energy in the final basis set =     -114.2202387806
 
 --------------------------------------------------------------
 
                    Orbital Energies (a.u.)
 --------------------------------------------------------------
 
 Alpha MOs
 -- Occupied --
-19.257 -10.304  -1.156  -0.569  -0.466  -0.466  -0.371  -0.252
 -- Virtual --
 -0.214  -0.022  -0.021   0.263   0.509   0.513   0.571   0.739
  0.745   0.781   0.800   0.917   0.919   1.375   1.481   1.481
  1.540   1.540   1.942   1.942   1.990   1.990   1.991   1.992
  1.992   1.992   2.393   2.598   2.598   2.948   3.674   3.902
 --------------------------------------------------------------
 
          Ground-State Mulliken Net Atomic Charges

     Atom                 Charge (a.u.)
  ----------------------------------------
      1 C                     0.174067
      2 O                    -0.176655
      3 H                    -0.005057
      4 H                     0.007644
  ----------------------------------------
  Sum of atomic charges =     0.000000

 -----------------------------------------------------------------
                    Cartesian Multipole Moments
 -----------------------------------------------------------------
    Charge (ESU x 10^10)
                 0.0000
    Dipole Moment (Debye)
         X      -0.0153      Y      -0.0000      Z      -0.0649
       Tot       0.0667
    Quadrupole Moments (Debye-Ang)
        XX     -12.7469     XY       0.0000     YY     -12.6534
        XZ      -0.0849     YZ       0.0000     ZZ     -13.9594
    Octopole Moments (Debye-Ang^2)
       XXX     -25.0106    XXY       0.0000    XYY      -8.3141
       YYY      -0.0000    XXZ      -0.6541    XYZ       0.0000
       YYZ      -1.0050    XZZ      -7.1792    YZZ      -0.0000
       ZZZ      -7.5195
    Hexadecapole Moments (Debye-Ang^3)
      XXXX    -175.0340   XXXY       0.0000   XXYY     -31.1994
      XYYY       0.0000   YYYY     -10.9203   XXXZ      33.0502
      XXYZ      -0.0000   XYYZ      10.2755   YYYZ       0.0000
      XXZZ     -51.5855   XYZZ       0.0000   YYZZ     -25.4397
      XZZZ      25.5381   YZZZ       0.0000   ZZZZ    -133.5635
 -----------------------------------------------------------------
 Calculating analytic gradient of the SCF energy
 Gradient of SCF Energy
            1           2           3           4
    1  -0.0000708  -0.0000278   0.0051530  -0.0050543
    2   0.0000000  -0.0000000  -0.0000000  -0.0000000
    3  -0.0040553   0.0041903   0.0084766  -0.0086115
 Max gradient component =       8.612E-03
 RMS gradient           =       4.398E-03
 Gradient time:  CPU 2.01 s  wall 0.25 s
 Geometry Optimization Parameters
   NAtoms,    NIC,     NZ,  NCons,   NDum,   NFix, NCnnct, MaxDiis
        4      27       4       0       0       0       0       0

 Cartesian Hessian Update
 Hessian Updated using BFGS Update
**WARNING** Hereditary positive definiteness endangered


** GEOMETRY OPTIMIZATION IN DELOCALIZED INTERNAL COORDINATES **
   Searching for a Minimum

   Optimization Cycle:   4

                       Coordinates (Angstroms)
     ATOM                X               Y               Z
      1  C        -0.0075256286    0.0000000000    0.0380714614
      2  O        -0.0019461117    0.0000000000    1.1778201643
      3  H         3.9386979644    0.0000000000   -0.1557523623
      4  H         2.0707737759    0.0000000000   -3.2742408785
   Point Group: c1    Number of degrees of freedom:     6


   Energy is   -114.220238781

 Hessian Updated using BFGS Update
**WARNING** Hereditary positive definiteness endangered

  5 Hessian modes will be used to form the next step
  Hessian Eigenvalues:
    -0.005729    0.006799    0.015867    0.088874    0.578550
**WARNING** Hessian does not have the Desired Local Structure

 Minimum Search - Taking Simple RFO Step
 Searching for Lamda that Minimizes Along All modes
 Value Taken    Lamda =  -0.01297827
 Calculated Step too Large.  Step scaled by  0.224731
 Step Taken.  Stepsize is  0.300000

                             Maximum     Tolerance    Cnvgd?
         Gradient           0.009322      0.000300      NO
         Displacement       0.257843      0.001200      NO
         Energy change     -0.002595      0.000001      NO


 New Cartesian Coordinates Obtained by Inverse Iteration

 Displacement from previous Coordinates is:  0.209559
 ----------------------------------------------------------------
             Standard Nuclear Orientation (Angstroms)
    I     Atom           X                Y                Z
 ----------------------------------------------------------------
    1      C      -0.0195103532     0.0000000000     0.0439040365
    2      O      -0.0083583948     0.0000000000     1.1798822075
    3      H       3.9120923069     0.0000000000    -0.2279279540
    4      H       2.1157764411     0.0000000000    -3.2099599052
 ----------------------------------------------------------------
 Nuclear Repulsion Energy =    26.0167921133 hartrees
 There are        8 alpha and        8 beta electrons
 Applying Cartesian multipole field
    Component          Value
    ---------          -----
     (2,0,0)        1.00000E-11
     (0,2,0)        2.00000E-10
     (0,0,2)       -3.00000E-11
 Nucleus-field energy     =    -0.0000000016 hartrees
 Requested basis set is 6-31G(d,p)
 There are 14 shells and 40 basis functions
 A cutoff of  1.0D-11 yielded     91 shell pairs
 There are       794 function pairs
 Smallest overlap matrix eigenvalue = 7.87E-03
 Guess MOs from SCF MO coefficient file

 -----------------------------------------------------------------------
  General SCF calculation program by
  Eric Jon Sundstrom, Paul Horn, Yuezhi Mao, Dmitri Zuev, Alec White,
  David Stuck, Shaama M.S., Shane Yost, Joonho Lee, David Small,
  Daniel Levine, Susi Lehtola, Hugh Burton, Evgeny Epifanovsky
 -----------------------------------------------------------------------
 Exchange:     0.2000 Hartree-Fock + 0.0800 Slater + 0.7200 B88
 Correlation:  0.1900 VWN1RPA + 0.8100 LYP
 Using SG-1 standard quadrature grid
 using 8 threads for integral computing
 -------------------------------------------------------
 OpenMP Integral computing Module                
 Release: version 1.0, May 2013, Q-Chem Inc. Pittsburgh 
 -------------------------------------------------------
 -------------------------------------------------------
 OpenMP BLAS3 based DFT computing Module                
 Release: version 1.0, May 2013, Q-Chem Inc. Pittsburgh 
 -------------------------------------------------------
 A restricted SCF calculation will be
 performed using DIIS
 SCF converges when DIIS error is below 1.0e-08
 ---------------------------------------
  Cycle       Energy         DIIS error
 ---------------------------------------
    1    -114.2233767453      3.08e-04  
    2    -114.2234024122      1.41e-04  
    3    -114.2233972954      1.97e-04  
    4    -114.2233140501      4.18e-04  
    5    -114.2234018448      8.67e-05  
    6    -114.2234053728      1.39e-06  
    7    -114.2234053736      2.84e-07  
    8    -114.2234053736      1.96e-08  
    9    -114.2234053736      1.91e-09  Convergence criterion met
 ---------------------------------------
 SCF time:   CPU 2.51s  wall 0.00s 
 SCF   energy in the final basis set =     -114.2234053736
 Total energy in the final basis set =     -114.2234053736
 
 --------------------------------------------------------------
 
                    Orbital Energies (a.u.)
 --------------------------------------------------------------
 
 Alpha MOs
 -- Occupied --
-19.257 -10.303  -1.158  -0.569  -0.467  -0.467  -0.370  -0.254
 -- Virtual --
 -0.212  -0.020  -0.020   0.263   0.509   0.513   0.571   0.734
  0.750   0.787   0.801   0.917   0.919   1.377   1.479   1.479
  1.543   1.543   1.945   1.945   1.990   1.990   1.990   1.991
  1.991   1.991   2.401   2.602   2.603   2.954   3.678   3.903
 --------------------------------------------------------------
 
          Ground-State Mulliken Net Atomic Charges

     Atom                 Charge (a.u.)
  ----------------------------------------
      1 C                     0.171175
      2 O                    -0.173880
      3 H                    -0.005026
      4 H                     0.007731
  ----------------------------------------
  Sum of atomic charges =     0.000000

 -----------------------------------------------------------------
                    Cartesian Multipole Moments
 -----------------------------------------------------------------
    Charge (ESU x 10^10)
                -0.0000
    Dipole Moment (Debye)
         X      -0.0103      Y      -0.0000      Z      -0.0509
       Tot       0.0519
    Quadrupole Moments (Debye-Ang)
        XX     -12.7009     XY      -0.0000     YY     -12.6516
        XZ      -0.0493     YZ      -0.0000     ZZ     -13.8860
    Octopole Moments (Debye-Ang^2)
       XXX     -24.5462    XXY      -0.0000    XYY      -8.2658
       YYY      -0.0000    XXZ      -0.4363    XYZ      -0.0000
       YYZ      -1.0119    XZZ      -7.0543    YZZ      -0.0000
       ZZZ      -7.8819
    Hexadecapole Moments (Debye-Ang^3)
      XXXX    -173.3481   XXXY      -0.0000   XXYY     -31.2203
      XYYY       0.0000   YYYY     -10.9187   XXXZ      35.3392
      XXYZ      -0.0000   XYYZ      10.7576   YYYZ      -0.0000
      XXZZ     -51.2088   XYZZ       0.0000   YYZZ     -24.9234
      XZZZ      26.3821   YZZZ      -0.0000   ZZZZ    -129.3719
 -----------------------------------------------------------------
 Calculating analytic gradient of the SCF energy
 Gradient of SCF Energy
            1           2           3           4
    1   0.0000164  -0.0001109   0.0061916  -0.0060971
    2  -0.0000000   0.0000000  -0.0000000  -0.0000000
    3   0.0049155  -0.0047730   0.0101619  -0.0103043
 Max gradient component =       1.030E-02
 RMS gradient           =       5.259E-03
 Gradient time:  CPU 2.00 s  wall 0.25 s
 Geometry Optimization Parameters
   NAtoms,    NIC,     NZ,  NCons,   NDum,   NFix, NCnnct, MaxDiis
        4      27       4       0       0       0       0       0

 Cartesian Hessian Update
 Hessian Updated using BFGS Update
**WARNING** Hereditary positive definiteness endangered


** GEOMETRY OPTIMIZATION IN DELOCALIZED INTERNAL COORDINATES **
   Searching for a Minimum

   Optimization Cycle:   5

                       Coordinates (Angstroms)
     ATOM                X               Y               Z
      1  C        -0.0195103532    0.0000000000    0.0439040365
      2  O        -0.0083583948    0.0000000000    1.1798822075
      3  H         3.9120923069    0.0000000000   -0.2279279540
      4  H         2.1157764411    0.0000000000   -3.2099599052
   Point Group: c1    Number of degrees of freedom:     6


   Energy is   -114.223405374

 Hessian Updated using BFGS Update
**WARNING** Hereditary positive definiteness endangered

  5 Hessian modes will be used to form the next step
  Hessian Eigenvalues:
    -0.007643    0.006801    0.015896    0.088880    0.434864
**WARNING** Hessian does not have the Desired Local Structure

 Minimum Search - Taking Simple RFO Step
 Searching for Lamda that Minimizes Along All modes
 Value Taken    Lamda =  -0.01618152
 Calculated Step too Large.  Step scaled by  0.218226
 Step Taken.  Stepsize is  0.300000

                             Maximum     Tolerance    Cnvgd?
         Gradient           0.009193      0.000300      NO
         Displacement       0.255359      0.001200      NO
         Energy change     -0.003167      0.000001      NO


 New Cartesian Coordinates Obtained by Inverse Iteration

 Displacement from previous Coordinates is:  0.210725
 ----------------------------------------------------------------
             Standard Nuclear Orientation (Angstroms)
    I     Atom           X                Y                Z
 ----------------------------------------------------------------
    1      C      -0.0328675803     0.0000000000     0.0463944712
    2      O      -0.0147053760     0.0000000000     1.1896563969
    3      H       3.8834356154     0.0000000000    -0.3006899696
    4      H       2.1641373408     0.0000000000    -3.1494625137
 ----------------------------------------------------------------
 Nuclear Repulsion Energy =    25.8863607846 hartrees
 There are        8 alpha and        8 beta electrons
 Applying Cartesian multipole field
    Component          Value
    ---------          -----
     (2,0,0)        1.00000E-11
     (0,2,0)        2.00000E-10
     (0,0,2)       -3.00000E-11
 Nucleus-field energy     =    -0.0000000016 hartrees
 Requested basis set is 6-31G(d,p)
 There are 14 shells and 40 basis functions
 A cutoff of  1.0D-11 yielded     91 shell pairs
 There are       794 function pairs
 Smallest overlap matrix eigenvalue = 8.02E-03
 Guess MOs from SCF MO coefficient file

 -----------------------------------------------------------------------
  General SCF calculation program by
  Eric Jon Sundstrom, Paul Horn, Yuezhi Mao, Dmitri Zuev, Alec White,
  David Stuck, Shaama M.S., Shane Yost, Joonho Lee, David Small,
  Daniel Levine, Susi Lehtola, Hugh Burton, Evgeny Epifanovsky
 -----------------------------------------------------------------------
 Exchange:     0.2000 Hartree-Fock + 0.0800 Slater + 0.7200 B88
 Correlation:  0.1900 VWN1RPA + 0.8100 LYP
 Using SG-1 standard quadrature grid
 using 8 threads for integral computing
 -------------------------------------------------------
 OpenMP Integral computing Module                
 Release: version 1.0, May 2013, Q-Chem Inc. Pittsburgh 
 -------------------------------------------------------
 -------------------------------------------------------
 OpenMP BLAS3 based DFT computing Module                
 Release: version 1.0, May 2013, Q-Chem Inc. Pittsburgh 
 -------------------------------------------------------
 A restricted SCF calculation will be
 performed using DIIS
 SCF converges when DIIS error is below 1.0e-08
 ---------------------------------------
  Cycle       Energy         DIIS error
 ---------------------------------------
    1    -114.2270781602      4.92e-04  
    2    -114.2271322357      2.65e-04  
    3    -114.2270073647      5.65e-04  
    4    -114.2266687732      9.45e-04  
    5    -114.2271415520      7.89e-05  
    6    -114.2271433213      1.37e-06  
    7    -114.2271433220      3.05e-07  
    8    -114.2271433220      4.71e-08  
    9    -114.2271433220      4.11e-09  Convergence criterion met
 ---------------------------------------
 SCF time:   CPU 2.50s  wall 1.00s 
 SCF   energy in the final basis set =     -114.2271433220
 Total energy in the final basis set =     -114.2271433220
 
 --------------------------------------------------------------
 
                    Orbital Energies (a.u.)
 --------------------------------------------------------------
 
 Alpha MOs
 -- Occupied --
-19.257 -10.305  -1.154  -0.569  -0.464  -0.464  -0.371  -0.257
 -- Virtual --
 -0.210  -0.023  -0.022   0.263   0.509   0.513   0.570   0.728
  0.741   0.793   0.800   0.917   0.919   1.374   1.482   1.482
  1.537   1.538   1.941   1.941   1.989   1.989   1.989   1.990
  1.990   1.991   2.386   2.594   2.595   2.943   3.671   3.901
 --------------------------------------------------------------
 
          Ground-State Mulliken Net Atomic Charges

     Atom                 Charge (a.u.)
  ----------------------------------------
      1 C                     0.176931
      2 O                    -0.179762
      3 H                    -0.004690
      4 H                     0.007522
  ----------------------------------------
  Sum of atomic charges =    -0.000000

 -----------------------------------------------------------------
                    Cartesian Multipole Moments
 -----------------------------------------------------------------
    Charge (ESU x 10^10)
                -0.0000
    Dipole Moment (Debye)
         X      -0.0027      Y       0.0000      Z      -0.0701
       Tot       0.0701
    Quadrupole Moments (Debye-Ang)
        XX     -12.6598     XY       0.0000     YY     -12.6750
        XZ      -0.0016     YZ      -0.0000     ZZ     -13.8720
    Octopole Moments (Debye-Ang^2)
       XXX     -23.9550    XXY       0.0000    XYY      -8.2125
       YYY       0.0000    XXZ      -0.2125    XYZ      -0.0000
       YYZ      -1.0597    XZZ      -6.9396    YZZ       0.0000
       ZZZ      -8.4030
    Hexadecapole Moments (Debye-Ang^3)
      XXXX    -171.1820   XXXY       0.0000   XXYY     -31.2578
      XYYY       0.0000   YYYY     -10.9546   XXXZ      37.8376
      XXYZ      -0.0000   XYYZ      11.2635   YYYZ      -0.0000
      XXZZ     -51.1079   XYZZ       0.0000   YYZZ     -24.5914
      XZZZ      27.2466   YZZZ      -0.0000   ZZZZ    -126.1151
 -----------------------------------------------------------------
 Calculating analytic gradient of the SCF energy
 Gradient of SCF Energy
            1           2           3           4
    1  -0.0002187   0.0001264   0.0073831  -0.0072909
    2   0.0000000  -0.0000000  -0.0000000  -0.0000000
    3  -0.0125123   0.0126559   0.0121437  -0.0122873
 Max gradient component =       1.266E-02
 RMS gradient           =       7.762E-03
 Gradient time:  CPU 2.00 s  wall 0.25 s
 Geometry Optimization Parameters
   NAtoms,    NIC,     NZ,  NCons,   NDum,   NFix, NCnnct, MaxDiis
        4      27       4       0       0       0       0       0

 Cartesian Hessian Update
 Hessian Updated using BFGS Update
**WARNING** Hereditary positive definiteness endangered


** GEOMETRY OPTIMIZATION IN DELOCALIZED INTERNAL COORDINATES **
   Searching for a Minimum

   Optimization Cycle:   6

                       Coordinates (Angstroms)
     ATOM                X               Y               Z
      1  C        -0.0328675803    0.0000000000    0.0463944712
      2  O        -0.0147053760    0.0000000000    1.1896563969
      3  H         3.8834356154    0.0000000000   -0.3006899696
      4  H         2.1641373408    0.0000000000   -3.1494625137
   Point Group: c1    Number of degrees of freedom:     6


   Energy is   -114.227143322

 Hessian Updated using BFGS Update
**WARNING** Hereditary positive definiteness endangered

  5 Hessian modes will be used to form the next step
  Hessian Eigenvalues:
    -0.251648    0.006599    0.008171    0.016514    0.089691
**WARNING** Hessian does not have the Desired Local Structure

 Minimum Search - Taking Simple RFO Step
 Searching for Lamda that Minimizes Along All modes
 Value Taken    Lamda =  -0.25264087
 Calculated Step too Large.  Step scaled by  0.018824
 Step Taken.  Stepsize is  0.300000

                             Maximum     Tolerance    Cnvgd?
         Gradient           0.014760      0.000300      NO
         Displacement       0.180800      0.001200      NO
         Energy change     -0.003738      0.000001      NO


 New Cartesian Coordinates Obtained by Inverse Iteration

 Displacement from previous Coordinates is:  0.221410
 ----------------------------------------------------------------
             Standard Nuclear Orientation (Angstroms)
    I     Atom           X                Y                Z
 ----------------------------------------------------------------
    1      C      -0.0277380360     0.0000000000     0.1075854665
    2      O      -0.0183023464     0.0000000000     1.1031418033
    3      H       3.8906533055     0.0000000000    -0.3197302224
    4      H       2.1553870769     0.0000000000    -3.1050986626
 ----------------------------------------------------------------
 Nuclear Repulsion Energy =    29.2084009330 hartrees
 There are        8 alpha and        8 beta electrons
 Applying Cartesian multipole field
    Component          Value
    ---------          -----
     (2,0,0)        1.00000E-11
     (0,2,0)        2.00000E-10
     (0,0,2)       -3.00000E-11
 Nucleus-field energy     =    -0.0000000014 hartrees
 Requested basis set is 6-31G(d,p)
 There are 14 shells and 40 basis functions
 A cutoff of  1.0D-11 yielded     91 shell pairs
 There are       794 function pairs
 Smallest overlap matrix eigenvalue = 5.52E-03
 Guess MOs from SCF MO coefficient file

 -----------------------------------------------------------------------
  General SCF calculation program by
  Eric Jon Sundstrom, Paul Horn, Yuezhi Mao, Dmitri Zuev, Alec White,
  David Stuck, Shaama M.S., Shane Yost, Joonho Lee, David Small,
  Daniel Levine, Susi Lehtola, Hugh Burton, Evgeny Epifanovsky
 -----------------------------------------------------------------------
 Exchange:     0.2000 Hartree-Fock + 0.0800 Slater + 0.7200 B88
 Correlation:  0.1900 VWN1RPA + 0.8100 LYP
 Using SG-1 standard quadrature grid
 using 8 threads for integral computing
 -------------------------------------------------------
 OpenMP Integral computing Module                
 Release: version 1.0, May 2013, Q-Chem Inc. Pittsburgh 
 -------------------------------------------------------
 -------------------------------------------------------
 OpenMP BLAS3 based DFT computing Module                
 Release: version 1.0, May 2013, Q-Chem Inc. Pittsburgh 
 -------------------------------------------------------
 A restricted SCF calculation will be
 performed using DIIS
 SCF converges when DIIS error is below 1.0e-08
 ---------------------------------------
  Cycle       Energy         DIIS error
 ---------------------------------------
    1    -114.1469349313      9.11e-03  
    2    -114.1596107685      5.22e-03  
    3    -114.1507544538      5.61e-03  
    4    -114.0728946864      1.13e-02  
    5    -114.1576122210      3.34e-03  
    6    -114.1577803404      3.25e-03  
    7    -114.1565869092      3.56e-03  
    8    -114.1600966237      2.52e-03  
    9    -114.1625873027      1.33e-03  
   10    -114.1633464583      5.89e-04  
   11    -114.1635328074      4.26e-06  
   12    -114.1635328156      1.71e-06  
   13    -114.1635328171      2.48e-07  
   14    -114.1635328171      1.37e-08  
   15    -114.1635328171      1.82e-09  Convergence criterion met
 ---------------------------------------
 SCF time:   CPU 4.15s  wall 0.00s 
 SCF   energy in the final basis set =     -114.1635328171
 Total energy in the final basis set =     -114.1635328171
 
 --------------------------------------------------------------
 
                    Orbital Energies (a.u.)
 --------------------------------------------------------------
 
 Alpha MOs
 -- Occupied --
-19.251 -10.258  -1.239  -0.569  -0.520  -0.520  -0.354  -0.256
 -- Virtual --
 -0.208   0.042   0.043   0.271   0.504   0.507   0.570   0.726
  0.775   0.795   0.923   0.926   1.058   1.435   1.435   1.438
  1.674   1.674   1.990   1.990   1.991   1.992   1.992   1.993
  2.031   2.031   2.748   2.756   2.756   3.290   3.846   3.950
 --------------------------------------------------------------
 
          Ground-State Mulliken Net Atomic Charges

     Atom                 Charge (a.u.)
  ----------------------------------------
      1 C                     0.035717
      2 O                    -0.038089
      3 H                    -0.008238
      4 H                     0.010611
  ----------------------------------------
  Sum of atomic charges =    -0.000000

 -----------------------------------------------------------------
                    Cartesian Multipole Moments
 -----------------------------------------------------------------
    Charge (ESU x 10^10)
                -0.0000
    Dipole Moment (Debye)
         X      -0.0328      Y      -0.0000      Z       0.3777
       Tot       0.3791
    Quadrupole Moments (Debye-Ang)
        XX     -12.4707     XY      -0.0000     YY     -12.3081
        XZ      -0.0486     YZ       0.0000     ZZ     -12.8975
    Octopole Moments (Debye-Ang^2)
       XXX     -24.7748    XXY      -0.0000    XYY      -8.2437
       YYY       0.0000    XXZ       0.2434    XYZ       0.0000
       YYZ      -0.5880    XZZ      -6.7216    YZZ       0.0000
       ZZZ      -7.4369
    Hexadecapole Moments (Debye-Ang^3)
      XXXX    -173.9916   XXXY      -0.0000   XXYY     -31.1813
      XYYY      -0.0000   YYYY     -10.4171   XXXZ      37.9028
      XXYZ       0.0000   XYYZ      11.2044   YYYZ       0.0000
      XXZZ     -48.9413   XYZZ       0.0000   YYZZ     -22.7273
      XZZZ      26.1921   YZZZ      -0.0000   ZZZZ    -114.3638
 -----------------------------------------------------------------
 Calculating analytic gradient of the SCF energy
 Gradient of SCF Energy
            1           2           3           4
    1   0.0055230  -0.0055545   0.0078853  -0.0078538
    2  -0.0000000   0.0000000  -0.0000000  -0.0000000
    3   0.5705850  -0.5704394   0.0126617  -0.0128072
 Max gradient component =       5.706E-01
 RMS gradient           =       2.330E-01
 Gradient time:  CPU 2.00 s  wall 0.25 s
 Geometry Optimization Parameters
   NAtoms,    NIC,     NZ,  NCons,   NDum,   NFix, NCnnct, MaxDiis
        4      27       4       0       0       0       0       0


** GEOMETRY OPTIMIZATION IN DELOCALIZED INTERNAL COORDINATES **
   Searching for a Minimum

   Optimization Cycle:   7

                       Coordinates (Angstroms)
     ATOM                X               Y               Z
      1  C        -0.0277380360    0.0000000000    0.1075854665
      2  O        -0.0183023464    0.0000000000    1.1031418033
      3  H         3.8906533055    0.0000000000   -0.3197302224
      4  H         2.1553870769    0.0000000000   -3.1050986626
   Point Group: c1    Number of degrees of freedom:     6


   Energy is   -114.163532817

 Hessian Updated using BFGS Update

 ** Taking Steepest Descent Step **
 Calculated Step too Large.  Step scaled by  0.542901
 Step Taken.  Stepsize is  0.300000

                             Maximum     Tolerance    Cnvgd?
         Gradient           0.333166      0.000300      NO
         Displacement       0.180876      0.001200      NO
         Energy change      0.063611      0.000001      NO


 New Cartesian Coordinates Obtained by Inverse Iteration

 Displacement from previous Coordinates is:  0.225788
 ----------------------------------------------------------------
             Standard Nuclear Orientation (Angstroms)
    I     Atom           X                Y                Z
 ----------------------------------------------------------------
    1      C      -0.0403778725     0.0000000000     0.0465843091
    2      O      -0.0146154262     0.0000000000     1.1956991004
    3      H       3.8733346018     0.0000000000    -0.3227311104
    4      H       2.1816586969     0.0000000000    -3.1336539143
 ----------------------------------------------------------------
 Nuclear Repulsion Energy =    25.7725302654 hartrees
 There are        8 alpha and        8 beta electrons
 Applying Cartesian multipole field
    Component          Value
    ---------          -----
     (2,0,0)        1.00000E-11
     (0,2,0)        2.00000E-10
     (0,0,2)       -3.00000E-11
 Nucleus-field energy     =    -0.0000000016 hartrees
 Requested basis set is 6-31G(d,p)
 There are 14 shells and 40 basis functions
 A cutoff of  1.0D-11 yielded     91 shell pairs
 There are       794 function pairs
 Smallest overlap matrix eigenvalue = 8.14E-03
 Guess MOs from SCF MO coefficient file

 -----------------------------------------------------------------------
  General SCF calculation program by
  Eric Jon Sundstrom, Paul Horn, Yuezhi Mao, Dmitri Zuev, Alec White,
  David Stuck, Shaama M.S., Shane Yost, Joonho Lee, David Small,
  Daniel Levine, Susi Lehtola, Hugh Burton, Evgeny Epifanovsky
 -----------------------------------------------------------------------
 Exchange:     0.2000 Hartree-Fock + 0.0800 Slater + 0.7200 B88
 Correlation:  0.1900 VWN1RPA + 0.8100 LYP
 Using SG-1 standard quadrature grid
 using 8 threads for integral computing
 -------------------------------------------------------
 OpenMP Integral computing Module                
 Release: version 1.0, May 2013, Q-Chem Inc. Pittsburgh 
 -------------------------------------------------------
 -------------------------------------------------------
 OpenMP BLAS3 based DFT computing Module                
 Release: version 1.0, May 2013, Q-Chem Inc. Pittsburgh 
 -------------------------------------------------------
 A restricted SCF calculation will be
 performed using DIIS
 SCF converges when DIIS error is below 1.0e-08
 ---------------------------------------
  Cycle       Energy         DIIS error
 ---------------------------------------
    1    -114.2099453575      9.19e-03  
    2    -114.2233069257      5.83e-03  
    3    -114.2135182060      6.81e-03  
    4    -114.1370628841      1.14e-02  
    5    -114.2217675324      3.52e-03  
    6    -114.2235886403      2.91e-03  
    7    -114.2242696161      2.69e-03  
    8    -114.2258733841      2.08e-03  
    9    -114.2280588179      5.32e-04  
   10    -114.2281879980      2.08e-04  
   11    -114.2282090834      6.16e-05  
   12    -114.2282111117      4.28e-06  
   13    -114.2282111213      6.34e-07  
   14    -114.2282111215      8.78e-09  Convergence criterion met
 ---------------------------------------
 SCF time:   CPU 3.85s  wall 0.00s 
 SCF   energy in the final basis set =     -114.2282111215
 Total energy in the final basis set =     -114.2282111215
 
 --------------------------------------------------------------
 
                    Orbital Energies (a.u.)
 --------------------------------------------------------------
 
 Alpha MOs
 -- Occupied --
-19.257 -10.307  -1.150  -0.569  -0.462  -0.462  -0.371  -0.258
 -- Virtual --
 -0.210  -0.025  -0.025   0.262   0.509   0.513   0.570   0.727
  0.733   0.795   0.799   0.917   0.919   1.372   1.484   1.484
  1.533   1.533   1.938   1.938   1.989   1.989   1.989   1.990
  1.990   1.990   2.374   2.588   2.588   2.934   3.665   3.899
 --------------------------------------------------------------
 
          Ground-State Mulliken Net Atomic Charges

     Atom                 Charge (a.u.)
  ----------------------------------------
      1 C                     0.181524
      2 O                    -0.184378
      3 H                    -0.004460
      4 H                     0.007314
  ----------------------------------------
  Sum of atomic charges =    -0.000000

 -----------------------------------------------------------------
                    Cartesian Multipole Moments
 -----------------------------------------------------------------
    Charge (ESU x 10^10)
                -0.0000
    Dipole Moment (Debye)
         X       0.0004      Y      -0.0000      Z      -0.0867
       Tot       0.0867
    Quadrupole Moments (Debye-Ang)
        XX     -12.6498     XY       0.0000     YY     -12.6904
        XZ       0.0079     YZ       0.0000     ZZ     -13.8901
    Octopole Moments (Debye-Ang^2)
       XXX     -23.7251    XXY       0.0000    XYY      -8.1896
       YYY       0.0000    XXZ      -0.1505    XYZ       0.0000
       YYZ      -1.0917    XZZ      -6.9059    YZZ      -0.0000
       ZZZ      -8.6194
    Hexadecapole Moments (Debye-Ang^3)
      XXXX    -170.4285   XXXY       0.0000   XXYY     -31.2770
      XYYY       0.0000   YYYY     -10.9778   XXXZ      38.6420
      XXYZ       0.0000   XYYZ      11.4229   YYYZ      -0.0000
      XXZZ     -51.1795   XYZZ      -0.0000   YYZZ     -24.5667
      XZZZ      27.5178   YZZZ       0.0000   ZZZZ    -125.5554
 -----------------------------------------------------------------
 Calculating analytic gradient of the SCF energy
 Gradient of SCF Energy
            1           2           3           4
    1  -0.0006144   0.0005166   0.0077645  -0.0076667
    2   0.0000000  -0.0000000  -0.0000000   0.0000000
    3  -0.0260486   0.0261922   0.0128161  -0.0129597
 Max gradient component =       2.619E-02
 RMS gradient           =       1.230E-02
 Gradient time:  CPU 1.99 s  wall 0.25 s
 Geometry Optimization Parameters
   NAtoms,    NIC,     NZ,  NCons,   NDum,   NFix, NCnnct, MaxDiis
        4      27       4       0       0       0       0       0

 Cartesian Hessian Update
 Hessian Updated using BFGS Update


** GEOMETRY OPTIMIZATION IN DELOCALIZED INTERNAL COORDINATES **
   Searching for a Minimum

   Optimization Cycle:   8

                       Coordinates (Angstroms)
     ATOM                X               Y               Z
      1  C        -0.0403778725    0.0000000000    0.0465843091
      2  O        -0.0146154262    0.0000000000    1.1956991004
      3  H         3.8733346018    0.0000000000   -0.3227311104
      4  H         2.1816586969    0.0000000000   -3.1336539143
   Point Group: c1    Number of degrees of freedom:     6


   Energy is   -114.228211122

 Hessian Updated using BFGS Update

  5 Hessian modes will be used to form the next step
  Hessian Eigenvalues:
     0.006516    0.007690    0.016406    0.089541    1.927541

 Minimum Search - Taking Simple RFO Step
 Searching for Lamda that Minimizes Along All modes
 Value Taken    Lamda =  -0.01149619
 Calculated Step too Large.  Step scaled by  0.391668
 Step Taken.  Stepsize is  0.300000

                             Maximum     Tolerance    Cnvgd?
         Gradient           0.018186      0.000300      NO
         Displacement       0.257656      0.001200      NO
         Energy change     -0.064678      0.000001      NO


 New Cartesian Coordinates Obtained by Inverse Iteration

 Displacement from previous Coordinates is:  0.208769
 ----------------------------------------------------------------
             Standard Nuclear Orientation (Angstroms)
    I     Atom           X                Y                Z
 ----------------------------------------------------------------
    1      C      -0.0504307232     0.0000000000     0.0515107835
    2      O      -0.0204429658     0.0000000000     1.1977712308
    3      H       3.8450876080     0.0000000000    -0.3943176386
    4      H       2.2257860810     0.0000000000    -3.0690659909
 ----------------------------------------------------------------
 Nuclear Repulsion Energy =    25.8434902044 hartrees
 There are        8 alpha and        8 beta electrons
 Applying Cartesian multipole field
    Component          Value
    ---------          -----
     (2,0,0)        1.00000E-11
     (0,2,0)        2.00000E-10
     (0,0,2)       -3.00000E-11
 Nucleus-field energy     =    -0.0000000016 hartrees
 Requested basis set is 6-31G(d,p)
 There are 14 shells and 40 basis functions
 A cutoff of  1.0D-11 yielded     91 shell pairs
 There are       794 function pairs
 Smallest overlap matrix eigenvalue = 8.08E-03
 Guess MOs from SCF MO coefficient file

 -----------------------------------------------------------------------
  General SCF calculation program by
  Eric Jon Sundstrom, Paul Horn, Yuezhi Mao, Dmitri Zuev, Alec White,
  David Stuck, Shaama M.S., Shane Yost, Joonho Lee, David Small,
  Daniel Levine, Susi Lehtola, Hugh Burton, Evgeny Epifanovsky
 -----------------------------------------------------------------------
 Exchange:     0.2000 Hartree-Fock + 0.0800 Slater + 0.7200 B88
 Correlation:  0.1900 VWN1RPA + 0.8100 LYP
 Using SG-1 standard quadrature grid
 using 8 threads for integral computing
 -------------------------------------------------------
 OpenMP Integral computing Module                
 Release: version 1.0, May 2013, Q-Chem Inc. Pittsburgh 
 -------------------------------------------------------
 -------------------------------------------------------
 OpenMP BLAS3 based DFT computing Module                
 Release: version 1.0, May 2013, Q-Chem Inc. Pittsburgh 
 -------------------------------------------------------
 A restricted SCF calculation will be
 performed using DIIS
 SCF converges when DIIS error is below 1.0e-08
 ---------------------------------------
  Cycle       Energy         DIIS error
 ---------------------------------------
    1    -114.2330781601      2.35e-04  
    2    -114.2330931841      1.07e-04  
    3    -114.2330914325      1.47e-04  
    4    -114.2330879953      1.15e-04  
    5    -114.2330891200      1.04e-04  
    6    -114.2330948908      1.21e-06  
    7    -114.2330948914      2.03e-07  
    8    -114.2330948914      1.52e-08  
    9    -114.2330948914      1.29e-09  Convergence criterion met
 ---------------------------------------
 SCF time:   CPU 2.49s  wall 1.00s 
 SCF   energy in the final basis set =     -114.2330948914
 Total energy in the final basis set =     -114.2330948914
 
 --------------------------------------------------------------
 
                    Orbital Energies (a.u.)
 --------------------------------------------------------------
 
 Alpha MOs
 -- Occupied --
-19.257 -10.306  -1.152  -0.569  -0.463  -0.463  -0.371  -0.261
 -- Virtual --
 -0.207  -0.024  -0.024   0.263   0.509   0.513   0.570   0.722
  0.737   0.800   0.802   0.917   0.919   1.373   1.483   1.483
  1.535   1.535   1.939   1.939   1.988   1.988   1.989   1.989
  1.990   1.990   2.379   2.591   2.592   2.938   3.667   3.900
 --------------------------------------------------------------
 
          Ground-State Mulliken Net Atomic Charges

     Atom                 Charge (a.u.)
  ----------------------------------------
      1 C                     0.179522
      2 O                    -0.182456
      3 H                    -0.004400
      4 H                     0.007334
  ----------------------------------------
  Sum of atomic charges =    -0.000000

 -----------------------------------------------------------------
                    Cartesian Multipole Moments
 -----------------------------------------------------------------
    Charge (ESU x 10^10)
                -0.0000
    Dipole Moment (Debye)
         X       0.0052      Y       0.0000      Z      -0.0754
       Tot       0.0755
    Quadrupole Moments (Debye-Ang)
        XX     -12.5971     XY       0.0000     YY     -12.6911
        XZ       0.0625     YZ      -0.0000     ZZ     -13.8021
    Octopole Moments (Debye-Ang^2)
       XXX     -23.2009    XXY       0.0000    XYY      -8.1516
       YYY       0.0000    XXZ       0.1468    XYZ      -0.0000
       YYZ      -1.0972    XZZ      -6.7849    YZZ       0.0000
       ZZZ      -9.0944
    Hexadecapole Moments (Debye-Ang^3)
      XXXX    -168.1732   XXXY      -0.0000   XXYY     -31.2976
      XYYY      -0.0000   YYYY     -10.9800   XXXZ      41.1049
      XXYZ      -0.0000   XYYZ      11.8748   YYYZ       0.0000
      XXZZ     -50.9589   XYZZ       0.0000   YYZZ     -24.0988
      XZZZ      28.0425   YZZZ      -0.0000   ZZZZ    -121.2112
 -----------------------------------------------------------------
 Calculating analytic gradient of the SCF energy
 Gradient of SCF Energy
            1           2           3           4
    1  -0.0005372   0.0004351   0.0092313  -0.0091293
    2  -0.0000000   0.0000000   0.0000000  -0.0000000
    3  -0.0198794   0.0200265   0.0152004  -0.0153476
 Max gradient component =       2.003E-02
 RMS gradient           =       1.092E-02
 Gradient time:  CPU 2.01 s  wall 0.25 s
 Geometry Optimization Parameters
   NAtoms,    NIC,     NZ,  NCons,   NDum,   NFix, NCnnct, MaxDiis
        4      27       4       0       0       0       0       0

 Cartesian Hessian Update
 Hessian Updated using BFGS Update
**WARNING** Hereditary positive definiteness endangered


** GEOMETRY OPTIMIZATION IN DELOCALIZED INTERNAL COORDINATES **
   Searching for a Minimum

   Optimization Cycle:   9

                       Coordinates (Angstroms)
     ATOM                X               Y               Z
      1  C        -0.0504307232    0.0000000000    0.0515107835
      2  O        -0.0204429658    0.0000000000    1.1977712308
      3  H         3.8450876080    0.0000000000   -0.3943176386
      4  H         2.2257860810    0.0000000000   -3.0690659909
   Point Group: c1    Number of degrees of freedom:     6


   Energy is   -114.233094891

 Hessian Updated using BFGS Update
**WARNING** Hereditary positive definiteness endangered

  5 Hessian modes will be used to form the next step
  Hessian Eigenvalues:
    -0.008947    0.006812    0.016010    0.089395    1.745707
**WARNING** Hessian does not have the Desired Local Structure

 Minimum Search - Taking Simple RFO Step
 Searching for Lamda that Minimizes Along All modes
 Value Taken    Lamda =  -0.02256067
 Calculated Step too Large.  Step scaled by  0.234241
 Step Taken.  Stepsize is  0.300000

                             Maximum     Tolerance    Cnvgd?
         Gradient           0.019337      0.000300      NO
         Displacement       0.260616      0.001200      NO
         Energy change     -0.004884      0.000001      NO


 New Cartesian Coordinates Obtained by Inverse Iteration

 Displacement from previous Coordinates is:  0.210080
 ----------------------------------------------------------------
             Standard Nuclear Orientation (Angstroms)
    I     Atom           X                Y                Z
 ----------------------------------------------------------------
    1      C      -0.0620980200     0.0000000000     0.0577051522
    2      O      -0.0258902952     0.0000000000     1.2014791557
    3      H       3.8153624839     0.0000000000    -0.4664036459
    4      H       2.2726258313     0.0000000000    -3.0068822772
 ----------------------------------------------------------------
 Nuclear Repulsion Energy =    25.9039174338 hartrees
 There are        8 alpha and        8 beta electrons
 Applying Cartesian multipole field
    Component          Value
    ---------          -----
     (2,0,0)        1.00000E-11
     (0,2,0)        2.00000E-10
     (0,0,2)       -3.00000E-11
 Nucleus-field energy     =    -0.0000000015 hartrees
 Requested basis set is 6-31G(d,p)
 There are 14 shells and 40 basis functions
 A cutoff of  1.0D-11 yielded     90 shell pairs
 There are       790 function pairs
 Smallest overlap matrix eigenvalue = 8.04E-03
 Guess MOs from SCF MO coefficient file

 -----------------------------------------------------------------------
  General SCF calculation program by
  Eric Jon Sundstrom, Paul Horn, Yuezhi Mao, Dmitri Zuev, Alec White,
  David Stuck, Shaama M.S., Shane Yost, Joonho Lee, David Small,
  Daniel Levine, Susi Lehtola, Hugh Burton, Evgeny Epifanovsky
 -----------------------------------------------------------------------
 Exchange:     0.2000 Hartree-Fock + 0.0800 Slater + 0.7200 B88
 Correlation:  0.1900 VWN1RPA + 0.8100 LYP
 Using SG-1 standard quadrature grid
 using 8 threads for integral computing
 -------------------------------------------------------
 OpenMP Integral computing Module                
 Release: version 1.0, May 2013, Q-Chem Inc. Pittsburgh 
 -------------------------------------------------------
 -------------------------------------------------------
 OpenMP BLAS3 based DFT computing Module                
 Release: version 1.0, May 2013, Q-Chem Inc. Pittsburgh 
 -------------------------------------------------------
 A restricted SCF calculation will be
 performed using DIIS
 SCF converges when DIIS error is below 1.0e-08
 ---------------------------------------
  Cycle       Energy         DIIS error
 ---------------------------------------
    1    -114.2388051905      2.93e-04  
    2    -114.2388325012      9.56e-05  
    3    -114.2388287187      1.62e-04  
    4    -114.2388186687      1.67e-04  
    5    -114.2388320901      6.40e-05  
    6    -114.2388340216      1.77e-06  
    7    -114.2388340224      2.74e-07  
    8    -114.2388340225      1.70e-08  
    9    -114.2388340225      1.29e-09  Convergence criterion met
 ---------------------------------------
 SCF time:   CPU 2.51s  wall 0.00s 
 SCF   energy in the final basis set =     -114.2388340225
 Total energy in the final basis set =     -114.2388340225
 
 --------------------------------------------------------------
 
                    Orbital Energies (a.u.)
 --------------------------------------------------------------
 
 Alpha MOs
 -- Occupied --
-19.257 -10.305  -1.153  -0.569  -0.464  -0.464  -0.371  -0.264
 -- Virtual --
 -0.204  -0.023  -0.022   0.263   0.509   0.513   0.570   0.719
  0.740   0.800   0.809   0.917   0.920   1.374   1.483   1.483
  1.537   1.537   1.940   1.940   1.988   1.988   1.989   1.989
  1.989   1.991   2.384   2.594   2.594   2.942   3.670   3.901
 --------------------------------------------------------------
 
          Ground-State Mulliken Net Atomic Charges

     Atom                 Charge (a.u.)
  ----------------------------------------
      1 C                     0.177892
      2 O                    -0.180856
      3 H                    -0.004308
      4 H                     0.007272
  ----------------------------------------
  Sum of atomic charges =    -0.000000

 -----------------------------------------------------------------
                    Cartesian Multipole Moments
 -----------------------------------------------------------------
    Charge (ESU x 10^10)
                -0.0000
    Dipole Moment (Debye)
         X       0.0099      Y      -0.0000      Z      -0.0645
       Tot       0.0653
    Quadrupole Moments (Debye-Ang)
        XX     -12.5427     XY      -0.0000     YY     -12.6923
        XZ       0.1194     YZ       0.0000     ZZ     -13.7119
    Octopole Moments (Debye-Ang^2)
       XXX     -22.6335    XXY      -0.0000    XYY      -8.1077
       YYY      -0.0000    XXZ       0.4577    XYZ       0.0000
       YYZ      -1.1144    XZZ      -6.6584    YZZ      -0.0000
       ZZZ      -9.6457
    Hexadecapole Moments (Debye-Ang^3)
      XXXX    -165.7996   XXXY       0.0000   XXYY     -31.3248
      XYYY      -0.0000   YYYY     -10.9828   XXXZ      43.6709
      XXYZ       0.0000   XYYZ      12.3341   YYYZ       0.0000
      XXZZ     -50.8496   XYZZ      -0.0000   YYZZ     -23.6933
      XZZZ      28.5090   YZZZ       0.0000   ZZZZ    -117.1226
 -----------------------------------------------------------------
 Calculating analytic gradient of the SCF energy
 Gradient of SCF Energy
            1           2           3           4
    1  -0.0004704   0.0003619   0.0109431  -0.0108346
    2   0.0000000  -0.0000000  -0.0000000   0.0000000
    3  -0.0146175   0.0147657   0.0179874  -0.0181356
 Max gradient component =       1.814E-02
 RMS gradient           =       1.049E-02
 Gradient time:  CPU 1.99 s  wall 0.25 s
 Geometry Optimization Parameters
   NAtoms,    NIC,     NZ,  NCons,   NDum,   NFix, NCnnct, MaxDiis
        4      27       4       0       0       0       0       0

 Cartesian Hessian Update
 Hessian Updated using BFGS Update
**WARNING** Hereditary positive definiteness endangered


** GEOMETRY OPTIMIZATION IN DELOCALIZED INTERNAL COORDINATES **
   Searching for a Minimum

   Optimization Cycle:  10

                       Coordinates (Angstroms)
     ATOM                X               Y               Z
      1  C        -0.0620980200    0.0000000000    0.0577051522
      2  O        -0.0258902952    0.0000000000    1.2014791557
      3  H         3.8153624839    0.0000000000   -0.4664036459
      4  H         2.2726258313    0.0000000000   -3.0068822772
   Point Group: c1    Number of degrees of freedom:     6


   Energy is   -114.238834022

 Hessian Updated using BFGS Update
**WARNING** Hereditary positive definiteness endangered

  5 Hessian modes will be used to form the next step
  Hessian Eigenvalues:
    -0.010535    0.006811    0.016014    0.089389    1.744355
**WARNING** Hessian does not have the Desired Local Structure

[...]
    Octopole Moments (Debye-Ang^2)
       XXX     -18.0944    XXY       0.0000    XYY      -6.2070
       YYY       0.0000    XXZ      -3.4703    XYZ      -0.0000
       YYZ      -2.4823    XZZ      -4.8651    YZZ       0.0000
       ZZZ      -9.0630
    Hexadecapole Moments (Debye-Ang^3)
      XXXX    -123.1584   XXXY       0.0000   XXYY     -24.0336
      XYYY       0.0000   YYYY      -9.7142   XXXZ      30.0373
      XXYZ      -0.0000   XYYZ      12.6656   YYYZ       0.0000
      XXZZ     -30.3972   XYZZ       0.0000   YYZZ     -14.8883
      XZZZ      34.9020   YZZZ      -0.0000   ZZZZ     -78.3774
 -----------------------------------------------------------------
 Calculating analytic gradient of the SCF energy
 Gradient of SCF Energy
            1           2           3           4
    1   0.0005720  -0.0005833   0.0000337  -0.0000223
    2  -0.0000000   0.0000000  -0.0000000   0.0000000
    3  -0.0005563   0.0005424  -0.0000136   0.0000275
 Max gradient component =       5.833E-04
 RMS gradient           =       3.258E-04
 Gradient time:  CPU 2.02 s  wall 0.25 s
 Geometry Optimization Parameters
   NAtoms,    NIC,     NZ,  NCons,   NDum,   NFix, NCnnct, MaxDiis
        4      27       4       0       0       0       0       0

 Cartesian Hessian Update
 Hessian Updated using BFGS Update


** GEOMETRY OPTIMIZATION IN CARTESIAN COORDINATES **
   Searching for a Minimum

   Optimization Cycle:  99

                       Coordinates (Angstroms)
     ATOM                X               Y               Z
      1  C         0.4046501161    0.0000000000    0.2473232459
      2  O        -0.4363029352    0.0000000000    1.0138026332
      3  H         3.3172375481    0.0000000000   -1.9550816867
      4  H         2.7144152711    0.0000000000   -1.5201458076
   Point Group: c1    Number of degrees of freedom:     6


   Energy is   -114.488663144


 Translations and Rotations Projected Out of Hessian

  5 Hessian modes will be used to form the next step
  Hessian Eigenvalues:
     0.000930    0.002150    0.012273    1.227721    2.627913

 Minimum Search - Taking Simple RFO Step
 Searching for Lamda that Minimizes Along All modes
 Value Taken    Lamda =   0.00000000
 Step Taken.  Stepsize is  0.016815

                             Maximum     Tolerance    Cnvgd?
         Gradient           0.000583      0.000300      NO
         Displacement       0.009378      0.001200      NO
         Energy change     -0.000001      0.000001     YES

 ----------------------------------------------------------------
             Standard Nuclear Orientation (Angstroms)
    I     Atom           X                Y                Z
 ----------------------------------------------------------------
    1      C       0.4088569957     0.0000000000     0.2522857444
    2      O      -0.4398074150     0.0000000000     1.0099671002
    3      H       3.3156245418     0.0000000000    -1.9573469724
    4      H       2.7153258774     0.0000000000    -1.5190074874
 ----------------------------------------------------------------
 Nuclear Repulsion Energy =    26.9313427242 hartrees
 There are        8 alpha and        8 beta electrons
 Applying Cartesian multipole field
    Component          Value
    ---------          -----
     (2,0,0)        1.00000E-11
     (0,2,0)        2.00000E-10
     (0,0,2)       -3.00000E-11
 Nucleus-field energy     =    -0.0000000008 hartrees
 Requested basis set is 6-31G(d,p)
 There are 14 shells and 40 basis functions
 A cutoff of  1.0D-11 yielded     93 shell pairs
 There are       798 function pairs
 Smallest overlap matrix eigenvalue = 7.14E-03
 Guess MOs from SCF MO coefficient file

 -----------------------------------------------------------------------
  General SCF calculation program by
  Eric Jon Sundstrom, Paul Horn, Yuezhi Mao, Dmitri Zuev, Alec White,
  David Stuck, Shaama M.S., Shane Yost, Joonho Lee, David Small,
  Daniel Levine, Susi Lehtola, Hugh Burton, Evgeny Epifanovsky
 -----------------------------------------------------------------------
 Exchange:     0.2000 Hartree-Fock + 0.0800 Slater + 0.7200 B88
 Correlation:  0.1900 VWN1RPA + 0.8100 LYP
 Using SG-1 standard quadrature grid
 using 8 threads for integral computing
 -------------------------------------------------------
 OpenMP Integral computing Module                
 Release: version 1.0, May 2013, Q-Chem Inc. Pittsburgh 
 -------------------------------------------------------
 -------------------------------------------------------
 OpenMP BLAS3 based DFT computing Module                
 Release: version 1.0, May 2013, Q-Chem Inc. Pittsburgh 
 -------------------------------------------------------
 A restricted SCF calculation will be
 performed using DIIS
 SCF converges when DIIS error is below 1.0e-08
 ---------------------------------------
  Cycle       Energy         DIIS error
 ---------------------------------------
    1    -114.4885826027      4.74e-04  
    2    -114.4886623360      6.69e-05  
    3    -114.4886636314      1.46e-05  
    4    -114.4886636923      5.26e-06  
    5    -114.4886636951      4.31e-06  
    6    -114.4886636977      1.15e-06  
    7    -114.4886636979      1.89e-08  
    8    -114.4886636979      6.29e-10  Convergence criterion met
 ---------------------------------------
 SCF time:   CPU 2.26s  wall 0.00s 
 SCF   energy in the final basis set =     -114.4886636979
 Total energy in the final basis set =     -114.4886636979
 
 --------------------------------------------------------------
 
                    Orbital Energies (a.u.)
 --------------------------------------------------------------
 
 Alpha MOs
 -- Occupied --
-19.261 -10.308  -1.161  -0.573  -0.470  -0.470  -0.426  -0.374
 -- Virtual --
 -0.025  -0.025   0.107   0.285   0.509   0.509   0.532   0.691
  0.752   0.797   0.914   0.914   1.107   1.448   1.476   1.476
  1.537   1.537   1.683   1.683   1.940   1.940   2.378   2.402
  2.595   2.595   2.624   2.624   2.961   3.723   3.930   4.160
 --------------------------------------------------------------
 
          Ground-State Mulliken Net Atomic Charges

     Atom                 Charge (a.u.)
  ----------------------------------------
      1 C                     0.184209
      2 O                    -0.174767
      3 H                    -0.019521
      4 H                     0.010079
  ----------------------------------------
  Sum of atomic charges =     0.000000

 -----------------------------------------------------------------
                    Cartesian Multipole Moments
 -----------------------------------------------------------------
    Charge (ESU x 10^10)
                 0.0000
    Dipole Moment (Debye)
         X      -0.1651      Y       0.0000      Z       0.1302
       Tot       0.2103
    Quadrupole Moments (Debye-Ang)
        XX     -13.1716     XY       0.0000     YY     -11.8977
        XZ       1.0283     YZ       0.0000     ZZ     -12.7384
    Octopole Moments (Debye-Ang^2)
       XXX     -18.1550    XXY       0.0000    XYY      -6.2116
       YYY       0.0000    XXZ      -3.4817    XYZ       0.0000
       YYZ      -2.4883    XZZ      -4.8553    YZZ       0.0000
       ZZZ      -9.0752
    Hexadecapole Moments (Debye-Ang^3)
      XXXX    -123.5282   XXXY       0.0000   XXYY     -24.0656
      XYYY       0.0000   YYYY      -9.7136   XXXZ      30.0462
      XXYZ       0.0000   XYYZ      12.6604   YYYZ       0.0000
      XXZZ     -30.3780   XYZZ       0.0000   YYZZ     -14.8634
      XZZZ      34.8445   YZZZ      -0.0000   ZZZZ     -78.1672
 -----------------------------------------------------------------
 Calculating analytic gradient of the SCF energy
 Gradient of SCF Energy
            1           2           3           4
    1   0.0002890  -0.0003001   0.0000084   0.0000028
    2   0.0000000  -0.0000000  -0.0000000   0.0000000
    3  -0.0002858   0.0002729   0.0000045   0.0000084
 Max gradient component =       3.001E-04
 RMS gradient           =       1.658E-04
 Gradient time:  CPU 2.02 s  wall 0.25 s
 Geometry Optimization Parameters
   NAtoms,    NIC,     NZ,  NCons,   NDum,   NFix, NCnnct, MaxDiis
        4      27       4       0       0       0       0       0

 Cartesian Hessian Update
 Hessian Updated using BFGS Update


** GEOMETRY OPTIMIZATION IN CARTESIAN COORDINATES **
   Searching for a Minimum

   Optimization Cycle: 100

                       Coordinates (Angstroms)
     ATOM                X               Y               Z
      1  C         0.4088569957    0.0000000000    0.2522857444
      2  O        -0.4398074150    0.0000000000    1.0099671002
      3  H         3.3156245418    0.0000000000   -1.9573469724
      4  H         2.7153258774    0.0000000000   -1.5190074874
   Point Group: c1    Number of degrees of freedom:     6


   Energy is   -114.488663698


 Translations and Rotations Projected Out of Hessian

  5 Hessian modes will be used to form the next step
  Hessian Eigenvalues:
     0.000665    0.002145    0.012229    1.214117    1.809654

 Minimum Search - Taking Simple RFO Step
 Searching for Lamda that Minimizes Along All modes
 Value Taken    Lamda =   0.00000000
 Step Taken.  Stepsize is  0.018836

                             Maximum     Tolerance    Cnvgd?
         Gradient           0.000300      0.000300      NO
         Displacement       0.010335      0.001200      NO
         Energy change     -0.000001      0.000001     YES

 ----------------------------------------------------------------
             Standard Nuclear Orientation (Angstroms)
    I     Atom           X                Y                Z
 ----------------------------------------------------------------
    1      C       0.4136690240     0.0000000000     0.2577550187
    2      O      -0.4436409275     0.0000000000     1.0056032713
    3      H       3.3137223485     0.0000000000    -1.9598312145
    4      H       2.7162495550     0.0000000000    -1.5176286907
 ----------------------------------------------------------------
 Nuclear Repulsion Energy =    26.9320517482 hartrees
 There are        8 alpha and        8 beta electrons
 Applying Cartesian multipole field
    Component          Value
    ---------          -----
     (2,0,0)        1.00000E-11
     (0,2,0)        2.00000E-10
     (0,0,2)       -3.00000E-11
 Nucleus-field energy     =    -0.0000000008 hartrees
 Requested basis set is 6-31G(d,p)
 There are 14 shells and 40 basis functions
 A cutoff of  1.0D-11 yielded     93 shell pairs
 There are       798 function pairs
 Smallest overlap matrix eigenvalue = 7.14E-03
 Guess MOs from SCF MO coefficient file

 -----------------------------------------------------------------------
  General SCF calculation program by
  Eric Jon Sundstrom, Paul Horn, Yuezhi Mao, Dmitri Zuev, Alec White,
  David Stuck, Shaama M.S., Shane Yost, Joonho Lee, David Small,
  Daniel Levine, Susi Lehtola, Hugh Burton, Evgeny Epifanovsky
 -----------------------------------------------------------------------
 Exchange:     0.2000 Hartree-Fock + 0.0800 Slater + 0.7200 B88
 Correlation:  0.1900 VWN1RPA + 0.8100 LYP
 Using SG-1 standard quadrature grid
 using 8 threads for integral computing
 -------------------------------------------------------
 OpenMP Integral computing Module                
 Release: version 1.0, May 2013, Q-Chem Inc. Pittsburgh 
 -------------------------------------------------------
 -------------------------------------------------------
 OpenMP BLAS3 based DFT computing Module                
 Release: version 1.0, May 2013, Q-Chem Inc. Pittsburgh 
 -------------------------------------------------------
 A restricted SCF calculation will be
 performed using DIIS
 SCF converges when DIIS error is below 1.0e-08
 ---------------------------------------
  Cycle       Energy         DIIS error
 ---------------------------------------
    1    -114.4885624169      5.30e-04  
    2    -114.4886623045      7.49e-05  
    3    -114.4886639087      1.99e-05  
    4    -114.4886639467      2.05e-05  
    5    -114.4886640058      5.63e-06  
    6    -114.4886640111      6.03e-07  
    7    -114.4886640112      2.05e-08  
    8    -114.4886640112      5.82e-10  Convergence criterion met
 ---------------------------------------
 SCF time:   CPU 2.25s  wall 1.00s 
 SCF   energy in the final basis set =     -114.4886640112
 Total energy in the final basis set =     -114.4886640112
 
 --------------------------------------------------------------
 
                    Orbital Energies (a.u.)
 --------------------------------------------------------------
 
 Alpha MOs
 -- Occupied --
-19.261 -10.308  -1.161  -0.573  -0.470  -0.470  -0.426  -0.374
 -- Virtual --
 -0.025  -0.025   0.107   0.285   0.509   0.509   0.532   0.692
  0.752   0.797   0.914   0.914   1.107   1.449   1.476   1.476
  1.537   1.537   1.683   1.683   1.940   1.940   2.378   2.402
  2.595   2.595   2.624   2.624   2.961   3.723   3.931   4.160
 --------------------------------------------------------------
 
          Ground-State Mulliken Net Atomic Charges

     Atom                 Charge (a.u.)
  ----------------------------------------
      1 C                     0.184229
      2 O                    -0.174767
      3 H                    -0.019563
      4 H                     0.010101
  ----------------------------------------
  Sum of atomic charges =     0.000000

 -----------------------------------------------------------------
                    Cartesian Multipole Moments
 -----------------------------------------------------------------
    Charge (ESU x 10^10)
                 0.0000
    Dipole Moment (Debye)
         X      -0.1655      Y       0.0000      Z       0.1304
       Tot       0.2107
    Quadrupole Moments (Debye-Ang)
        XX     -13.1975     XY       0.0000     YY     -11.8977
        XZ       1.0254     YZ       0.0000     ZZ     -12.7141
    Octopole Moments (Debye-Ang^2)
       XXX     -18.2257    XXY       0.0000    XYY      -6.2175
       YYY       0.0000    XXZ      -3.4942    XYZ      -0.0000
       YYZ      -2.4947    XZZ      -4.8454    YZZ       0.0000
       ZZZ      -9.0878
    Hexadecapole Moments (Debye-Ang^3)
      XXXX    -123.9421   XXXY       0.0000   XXYY     -24.1015
      XYYY       0.0000   YYYY      -9.7136   XXXZ      30.0512
      XXYZ      -0.0000   XYYZ      12.6532   YYYZ       0.0000
      XXZZ     -30.3555   XYZZ       0.0000   YYZZ     -14.8353
      XZZZ      34.7747   YZZZ       0.0000   ZZZZ     -77.9287
 -----------------------------------------------------------------
 Calculating analytic gradient of the SCF energy
 Gradient of SCF Energy
            1           2           3           4
    1   0.0002613  -0.0002718   0.0000143  -0.0000039
    2   0.0000000  -0.0000000   0.0000000  -0.0000000
    3  -0.0002494   0.0002371  -0.0000003   0.0000127
 Max gradient component =       2.718E-04
 RMS gradient           =       1.475E-04
 Gradient time:  CPU 2.03 s  wall 0.26 s
 Geometry Optimization Parameters
   NAtoms,    NIC,     NZ,  NCons,   NDum,   NFix, NCnnct, MaxDiis
        4      27       4       0       0       0       0       0

 Cartesian Hessian Update
 Hessian Updated using BFGS Update


** GEOMETRY OPTIMIZATION IN CARTESIAN COORDINATES **
   Searching for a Minimum

   Optimization Cycle: 101

                       Coordinates (Angstroms)
     ATOM                X               Y               Z
      1  C         0.4136690240    0.0000000000    0.2577550187
      2  O        -0.4436409275    0.0000000000    1.0056032713
      3  H         3.3137223485    0.0000000000   -1.9598312145
      4  H         2.7162495550    0.0000000000   -1.5176286907
   Point Group: c1    Number of degrees of freedom:     6


   Energy is   -114.488664011


 Translations and Rotations Projected Out of Hessian

  5 Hessian modes will be used to form the next step
  Hessian Eigenvalues:
     0.000591    0.002136    0.012175    0.969752    1.301090

 Minimum Search - Taking Simple RFO Step
 Searching for Lamda that Minimizes Along All modes
 Value Taken    Lamda =   0.00000000
 Step Taken.  Stepsize is  0.016089

                             Maximum     Tolerance    Cnvgd?
         Gradient           0.000272      0.000300     YES
         Displacement       0.008760      0.001200      NO
         Energy change     -0.000000      0.000001     YES


                       Distance Matrix (Angstroms)
             C (  1)   O (  2)   H (  3)
   O (  2)  1.137654
   H (  3)  3.650753  4.786604
   H (  4)  2.907553  4.043712  0.743315
 
 Final energy is   -114.488664011195     


 ******************************
 **  OPTIMIZATION CONVERGED  **
 ******************************

                       Coordinates (Angstroms)
     ATOM                X               Y               Z
      1  C         0.4136690240    0.0000000000    0.2577550187
      2  O        -0.4436409275    0.0000000000    1.0056032713
      3  H         3.3137223485    0.0000000000   -1.9598312145
      4  H         2.7162495550    0.0000000000   -1.5176286907

Z-matrix Print:
$molecule
0 1
C 
O  1 1.137654
H  1 2.907553 2 176.534864
H  3 0.743315 1 178.872251 2 -0.000000 0
$end

 
 --------------------------------------------------------------
 
                    Orbital Energies (a.u.)
 --------------------------------------------------------------
 
 Alpha MOs
 -- Occupied --
-19.261 -10.308  -1.161  -0.573  -0.470  -0.470  -0.426  -0.374
 -- Virtual --
 -0.025  -0.025   0.107   0.285   0.509   0.509   0.532   0.692
  0.752   0.797   0.914   0.914   1.107   1.449   1.476   1.476
  1.537   1.537   1.683   1.683   1.940   1.940   2.378   2.402
  2.595   2.595   2.624   2.624   2.961   3.723   3.931   4.160
 --------------------------------------------------------------
 
          Ground-State Mulliken Net Atomic Charges

     Atom                 Charge (a.u.)
  ----------------------------------------
      1 C                     0.184229
      2 O                    -0.174767
      3 H                    -0.019563
      4 H                     0.010101
  ----------------------------------------
  Sum of atomic charges =     0.000000

 -----------------------------------------------------------------
                    Cartesian Multipole Moments
 -----------------------------------------------------------------
    Charge (ESU x 10^10)
                 0.0000
    Dipole Moment (Debye)
         X      -0.1655      Y       0.0000      Z       0.1304
       Tot       0.2107
    Quadrupole Moments (Debye-Ang)
        XX     -13.1975     XY       0.0000     YY     -11.8977
        XZ       1.0254     YZ       0.0000     ZZ     -12.7141
    Octopole Moments (Debye-Ang^2)
       XXX     -18.2257    XXY       0.0000    XYY      -6.2175
       YYY       0.0000    XXZ      -3.4942    XYZ      -0.0000
       YYZ      -2.4947    XZZ      -4.8454    YZZ       0.0000
       ZZZ      -9.0878
    Hexadecapole Moments (Debye-Ang^3)
      XXXX    -123.9421   XXXY       0.0000   XXYY     -24.1015
      XYYY       0.0000   YYYY      -9.7136   XXXZ      30.0512
      XXYZ      -0.0000   XYYZ      12.6532   YYYZ       0.0000
      XXZZ     -30.3555   XYZZ       0.0000   YYZZ     -14.8353
      XZZZ      34.7747   YZZZ       0.0000   ZZZZ     -77.9287
 -----------------------------------------------------------------
Archival summary:
1\1\node1\OPT\ProcedureUnspecified\6-31G**\112\songzl\ThuApr612:23:262023ThuApr612:23:262023\0\\#,OPT,ProcedureUnspecified,6-31G**,\\0,1\C\O,1,1.13765\H,1,2.90755,2,176.535\H,3,0.743315,1,178.872,2,-0,0\\\@

 Total job time:  62.59s(wall), 492.28s(cpu) 
 Thu Apr  6 12:23:26 2023

        *************************************************************
        *                                                           *
        *  Thank you very much for using Q-Chem.  Have a nice day.  *
        *                                                           *
        *************************************************************


