
Running Job 1 of 1 baker_set_reactant.inp
qchem baker_set_reactant.inp_31004.0 /tmp/songzl/qchem_baker_set/qchem31004/ 1
/apps/apps/qchem/qc51/exe/qcprog.exe_s baker_set_reactant.inp_31004.0 /tmp/songzl/qchem_baker_set/qchem31004/
Check license passed

                  Welcome to Q-Chem
     A Quantum Leap Into The Future Of Chemistry


 Q-Chem 5.1, Q-Chem, Inc., Pleasanton, CA (2018)

 Yihan Shao,  Zhengting Gan,  E. Epifanovsky,  A. T. B. Gilbert,  M. Wormit,  
 J. Kussmann,  A. W. Lange,  A. Behn,  Jia Deng,  Xintian Feng,  D. Ghosh,  
 M. Goldey,  P. R. Horn,  L. D. Jacobson,  I. Kaliman,  T. Kus,  A. Landau,  
 Jie Liu,  E. I. Proynov,  R. M. Richard,  R. P. Steele,  E. J. Sundstrom,  
 H. L. Woodcock III,  P. M. Zimmerman,  D. Zuev,  B. Albrecht,  E. Alguire,  
 S. A. Baeppler,  D. Barton,  Z. Benda,  Y. A. Bernard,  E. J. Berquist,  
 K. B. Bravaya,  H. Burton,  D. Casanova,  Chun-Min Chang,  Yunqing Chen,  
 A. Chien,  K. D. Closser,  M. P. Coons,  S. Coriani,  S. Dasgupta,  
 A. L. Dempwolff,  M. Diedenhofen,  Hainam Do,  R. G. Edgar,  Po-Tung Fang,  
 S. Faraji,  S. Fatehi,  Qingguo Feng,  K. D. Fenk,  J. Fosso-Tande,  
 Qinghui Ge,  A. Ghysels,  G. Gidofalvi,  J. Gomes,  J. Gonthier,  A. Gunina,  
 D. Hait,  M. W. D. Hanson-Heine,  P. H. P. Harbach,  A. W. Hauser,  
 J. E. Herr,  E. G. Hohenstein,  Z. C. Holden,  Kerwin Hui,  B. C. Huynh,  
 T.-C. Jagau,  Hyunjun Ji,  B. Kaduk,  K. Khistyaev,  Jaehoon Kim,  
 P. Klunzinger,  K. Koh,  D. Kosenkov,  L. Koulias,  T. Kowalczyk,  
 C. M. Krauter,  A. Kunitsa,  Ka Un Lao,  A. Laurent,  K. V. Lawler,  
 Joonho Lee,  D. Lefrancois,  S. Lehtola,  D. S. Levine,  Yi-Pei Li,  
 You-Sheng Lin,  Fenglai Liu,  E. Livshits,  A. Luenser,  P. Manohar,  
 E. Mansoor,  S. F. Manzer,  Shan-Ping Mao,  Yuezhi Mao,  N. Mardirossian,  
 A. V. Marenich,  T. Markovich,  L. A. Martinez-Martinez,  S. A. Maurer,  
 N. J. Mayhall,  S. C. McKenzie,  J.-M. Mewes,  A. F. Morrison,  
 J. W. Mullinax,  K. Nanda,  T. S. Nguyen-Beck,  R. Olivares-Amaya,  
 J. A. Parkhill,  T. M. Perrine,  F. Plasser,  P. Pokhilko,  S. Prager,  
 A. Prociuk,  E. Ramos,  D. R. Rehn,  F. Rob,  M. Schneider,  N. Sergueev,  
 S. M. Sharada,  S. Sharma,  D. W. Small,  T. Stauch,  T. Stein,  
 Yu-Chuan Su,  A. J. W. Thom,  A. Tkatchenko,  T. Tsuchimochi,  N. M. Tubman,  
 L. Vogt,  M. L. Vidal,  O. Vydrov,  M. A. Watson,  J. Wenzel,  
 M. de Wergifosse,  T. A. Wesolowski,  A. White,  J. Witte,  A. Yamada,  
 Jun Yang,  K. Yao,  S. Yeganeh,  S. R. Yost,  Zhi-Qiang You,  A. Zech,  
 Igor Ying Zhang,  Xing Zhang,  Yan Zhao,  Ying Zhu,  B. R. Brooks,  
 G. K. L. Chan,  C. J. Cramer,  M. S. Gordon,  W. J. Hehre,  A. Klamt,  
 M. W. Schmidt,  C. D. Sherrill,  D. G. Truhlar,  A. Aspuru-Guzik,  R. Baer,  
 A. T. Bell,  N. A. Besley,  Jeng-Da Chai,  A. E. DePrince, III,  
 R. A. DiStasio Jr.,  A. Dreuw,  B. D. Dunietz,  T. R. Furlani,  
 Chao-Ping Hsu,  Yousung Jung,  Jing Kong,  D. S. Lambrecht,  WanZhen Liang,  
 C. Ochsenfeld,  V. A. Rassolov,  L. V. Slipchenko,  J. E. Subotnik,  
 T. Van Voorhis,  J. M. Herbert,  A. I. Krylov,  P. M. W. Gill,  M. Head-Gordon

 Contributors to earlier versions of Q-Chem not listed above: 
 R. D. Adamson,  B. Austin,  J. Baker,  G. J. O. Beran,  K. Brandhorst,  
 S. T. Brown,  E. F. C. Byrd,  A. K. Chakraborty,  C.-L. Cheng,  
 Siu Hung Chien,  D. M. Chipman,  D. L. Crittenden,  H. Dachsel,  
 R. J. Doerksen,  A. D. Dutoi,  L. Fusti-Molnar,  W. A. Goddard III,  
 A. Golubeva-Zadorozhnaya,  S. R. Gwaltney,  G. Hawkins,  A. Heyden,  
 S. Hirata,  G. Kedziora,  F. J. Keil,  C. Kelley,  Jihan Kim,  R. A. King,  
 R. Z. Khaliullin,  P. P. Korambath,  W. Kurlancheek,  A. M. Lee,  M. S. Lee,  
 S. V. Levchenko,  Ching Yeh Lin,  D. Liotard,  R. C. Lochan,  I. Lotan,  
 P. E. Maslen,  N. Nair,  D. P. O'Neill,  D. Neuhauser,  E. Neuscamman,  
 C. M. Oana,  R. Olson,  B. Peters,  R. Peverati,  P. A. Pieniazek,  
 Y. M. Rhee,  J. Ritchie,  M. A. Rohrdanz,  E. Rosta,  N. J. Russ,  
 H. F. Schaefer III,  N. E. Schultz,  N. Shenvi,  A. C. Simmonett,  A. Sodt,  
 D. Stuck,  K. S. Thanthiriwatte,  V. Vanovschi,  Tao Wang,  A. Warshel,  
 C. F. Williams,  Q. Wu,  X. Xu,  W. Zhang

 Please cite Q-Chem as follows:
 Y. Shao et al., Mol. Phys. 113, 184-215 (2015)
 DOI: 10.1080/00268976.2014.952696

 Q-Chem 5.1.1 for Intel X86 EM64T Linux

 Parts of Q-Chem use Armadillo 8.300.2 (Tropical Shenanigans).
 http://arma.sourceforge.net/

 Q-Chem begins on Thu Apr  6 13:59:16 2023  

Host: 
0

     Scratch files written to /tmp/songzl/qchem_baker_set/qchem31004//
 Aug318 |scratch|qcdevops|jenkins|workspace|build_RNUM 6609   
Processing $rem in /apps/apps/qchem/qc51/config/preferences.
 MEM_TOTAL  1000 
The previous job contains 0 fragments, simply inherited here
Input Ideriv = 2
Curr. Ideriv = -1
Max.  Ideriv = 2

Checking the input file for inconsistencies... 	...done.

--------------------------------------------------------------
User input:
--------------------------------------------------------------
$molecule
READ ./zmat.inp
$end

$rem
mem_total               230000
mem_static              2048
job_type                optimization
basis                   6-31g**
method                  b3lyp
symmetry                false
sym_ignore              true
geom_opt_max_cycles     500
$end
--------------------------------------------------------------
 ----------------------------------------------------------------
             Standard Nuclear Orientation (Angstroms)
    I     Atom           X                Y                Z
 ----------------------------------------------------------------
    1      C       0.0000000000     0.0000000000     0.0000000000
    2      N       1.1800000000     0.0000000000     0.0000000000
    3      H       2.1800000000     0.0000000000     0.0000000000
    4      H      -3.0000000000    -0.5000000000     0.0000000000
    5      H      -3.0000000000     0.5000000000     0.0000000000
 ----------------------------------------------------------------
 Nuclear Repulsion Energy =    28.5760874318 hartrees
 There are        8 alpha and        8 beta electrons
 Requested basis set is 6-31G(d,p)
 There are 17 shells and 45 basis functions

 Total QAlloc Memory Limit 230000 MB
 Mega-Array Size      2002 MB
 MEM_STATIC part      2048 MB
 A cutoff of  1.0D-11 yielded    135 shell pairs
 There are       992 function pairs
 
 -------------------------------------------------------
 OpenMP Integral Computing Module                       
 Release: version 1.0, May 2013, Q-Chem Inc. Pittsburgh 
 -------------------------------------------------------
 Integral Job Info:
 Integral job number is                      11
 Integral operator is                         1
 short-range coefficients                     0
 long-range coefficients              100000000
 Omega coefficients                           0
 if combine SR and LR in K                    0
 Integral screening is                        0
 Integral computing path is                   2
 max size of driver memory is            800000
 size of driver memory is                593474
 size of scratch memory is              2361544
 max col of scratch BK array               1296
 max len of scratch array in speh3          155
 max len of scratch index in speh4           18
 max int batch size is                      520
 min int batch size is                       52
 fixed nKL is                                52
 max L of basis functions is                  2
 order of int derivative is                   0
 number of shells is                         17
 number of basis is                          45
 number of cartesian basis is                45
 number of contracted shell pairs           135
 number of primitive shell pairs            537
 maxK2 (contraction) of shell pair           36
 max number of K2 of shell pair               1
 max number of CS2 of shell pair             12
 max number of PS2 of shell pair             72
 mem total for path MDJ                  509160
 -------------------------------------------------------
 Smallest overlap matrix eigenvalue = 5.32E-03

 Scale SEOQF with 1.000000e-01/1.000000e+00/1.000000e+00

 Standard Electronic Orientation quadrupole field applied
 Nucleus-field energy     =     0.0000000015 hartrees
 Guess from superposition of atomic densities
 Warning:  Energy on first SCF cycle will be non-variational
 SAD guess density has 16.000000 electrons

 -----------------------------------------------------------------------
  General SCF calculation program by
  Eric Jon Sundstrom, Paul Horn, Yuezhi Mao, Dmitri Zuev, Alec White,
  David Stuck, Shaama M.S., Shane Yost, Joonho Lee, David Small,
  Daniel Levine, Susi Lehtola, Hugh Burton, Evgeny Epifanovsky
 -----------------------------------------------------------------------
 Exchange:     0.2000 Hartree-Fock + 0.0800 Slater + 0.7200 B88
 Correlation:  0.1900 VWN1RPA + 0.8100 LYP
 Using SG-1 standard quadrature grid
 using 8 threads for integral computing
 -------------------------------------------------------
 OpenMP Integral computing Module                
 Release: version 1.0, May 2013, Q-Chem Inc. Pittsburgh 
 -------------------------------------------------------
 -------------------------------------------------------
 OpenMP BLAS3 based DFT computing Module                
 Release: version 1.0, May 2013, Q-Chem Inc. Pittsburgh 
 -------------------------------------------------------
 A restricted SCF calculation will be
 performed using DIIS
 SCF converges when DIIS error is below 1.0e-08
 ---------------------------------------
  Cycle       Energy         DIIS error
 ---------------------------------------
    1     -94.5480083446      9.48e-02  
    2     -94.5234768850      1.04e-02  
    3     -94.5284706717      9.71e-03  
    4     -94.5457320410      3.65e-03  
    5     -94.5488990156      1.94e-04  
    6     -94.5489081268      2.24e-05  
    7     -94.5489082772      1.72e-06  
    8     -94.5489082779      2.06e-07  
    9     -94.5489082779      4.00e-08  
   10     -94.5489082779      4.54e-09  Convergence criterion met
 ---------------------------------------
 SCF time:   CPU 3.06s  wall 0.00s 
 SCF   energy in the final basis set =      -94.5489082779
 Total energy in the final basis set =      -94.5489082779
 
 --------------------------------------------------------------
 
                    Orbital Energies (a.u.)
 --------------------------------------------------------------
 
 Alpha MOs
 -- Occupied --
-14.376 -10.234  -0.939  -0.661  -0.369  -0.369  -0.366  -0.307
 -- Virtual --
  0.020   0.026   0.055   0.068   0.355   0.497   0.554   0.554
  0.603   0.728   0.730   0.788   0.895   0.916   1.161   1.405
  1.425   1.426   1.514   1.514   1.776   1.825   1.934   1.934
  1.956   2.121   2.121   2.299   2.378   2.380   2.789   2.895
  2.895   3.399   3.460   3.997   4.854
 --------------------------------------------------------------
 
          Ground-State Mulliken Net Atomic Charges

     Atom                 Charge (a.u.)
  ----------------------------------------
      1 C                     0.052224
      2 N                    -0.352148
      3 H                     0.300785
      4 H                    -0.000430
      5 H                    -0.000430
  ----------------------------------------
  Sum of atomic charges =    -0.000000

 -----------------------------------------------------------------
                    Cartesian Multipole Moments
 -----------------------------------------------------------------
    Charge (ESU x 10^10)
                 0.0000
    Dipole Moment (Debye)
         X       2.8933      Y       0.0000      Z      -0.0000
       Tot       2.8933
    Quadrupole Moments (Debye-Ang)
        XX      -8.1222     XY       0.0000     YY     -13.0187
        XZ      -0.0000     YZ      -0.0000     ZZ     -13.8393
    Octopole Moments (Debye-Ang^2)
       XXX      17.2761    XXY      -0.0000    XYY      -2.9524
       YYY       0.0000    XXZ       0.0000    XYZ      -0.0000
       YYZ      -0.0000    XZZ      -0.4946    YZZ       0.0000
       ZZZ      -0.0000
    Hexadecapole Moments (Debye-Ang^3)
      XXXX    -159.1130   XXXY       0.0000   XXYY     -28.2973
      XYYY       0.0000   YYYY     -14.6375   XXXZ       0.0000
      XXYZ      -0.0000   XYYZ      -0.0000   YYYZ      -0.0000
      XXZZ     -35.3029   XYZZ       0.0000   YYZZ      -4.6028
      XZZZ      -0.0000   YZZZ      -0.0000   ZZZZ     -12.7295
 -----------------------------------------------------------------
 Calculating analytic gradient of the SCF energy
 Gradient of SCF Energy
            1           2           3           4           5
    1  -0.0091482   0.0045594   0.0013645   0.0016122   0.0016122
    2   0.0000000   0.0000000  -0.0000000  -0.0896767   0.0896767
    3  -0.0000000   0.0000000  -0.0000000   0.0000000  -0.0000000
 Max gradient component =       8.968E-02
 RMS gradient           =       3.286E-02
 Gradient time:  CPU 2.23 s  wall 0.28 s
 Geometry Optimization Parameters
   NAtoms,    NIC,     NZ,  NCons,   NDum,   NFix, NCnnct, MaxDiis
        5      25       0       0       0       0       0       0


** GEOMETRY OPTIMIZATION IN DELOCALIZED INTERNAL COORDINATES **
   Searching for a Minimum

   Optimization Cycle:   1

                       Coordinates (Angstroms)
     ATOM                X               Y               Z
      1  C         0.0000000000    0.0000000000    0.0000000000
      2  N         1.1800000000    0.0000000000    0.0000000000
      3  H         2.1800000000    0.0000000000    0.0000000000
      4  H        -3.0000000000   -0.5000000000    0.0000000000
      5  H        -3.0000000000    0.5000000000    0.0000000000
   Point Group: c1    Number of degrees of freedom:     9


   Energy is    -94.548908278


 Attempting to Generate Delocalized Internal Coordinates

  4 Hessian modes will be used to form the next step
  Hessian Eigenvalues:
     0.011682    0.178318    0.476883    1.155508

 Minimum Search - Taking Simple RFO Step
 Searching for Lamda that Minimizes Along All modes
 Value Taken    Lamda =  -0.03520150
 Calculated Step too Large.  Step scaled by  0.738584
 Step Taken.  Stepsize is  0.300000

                             Maximum     Tolerance    Cnvgd?
         Gradient           0.077599      0.000300      NO
         Displacement       0.270529      0.001200      NO
         Energy change     *********      0.000001      NO


 New Cartesian Coordinates Obtained by Inverse Iteration

 Displacement from previous Coordinates is:  0.206399
 ----------------------------------------------------------------
             Standard Nuclear Orientation (Angstroms)
    I     Atom           X                Y                Z
 ----------------------------------------------------------------
    1      C       0.0076220412     0.0000000000     0.0000000000
    2      N       1.1856775698     0.0000000000     0.0000000000
    3      H       2.1846361461     0.0000000000     0.0000000000
    4      H      -3.0089678785    -0.4236562814     0.0000000000
    5      H      -3.0089678785     0.4236562814     0.0000000000
 ----------------------------------------------------------------
 Nuclear Repulsion Energy =    28.7022480940 hartrees
 There are        8 alpha and        8 beta electrons
 Applying Cartesian multipole field
    Component          Value
    ---------          -----
     (2,0,0)        1.00000E-11
     (0,2,0)        2.00000E-10
     (0,0,2)       -3.00000E-10
 Nucleus-field energy     =     0.0000000014 hartrees
 Requested basis set is 6-31G(d,p)
 There are 17 shells and 45 basis functions
 A cutoff of  1.0D-11 yielded    135 shell pairs
 There are       992 function pairs
 Smallest overlap matrix eigenvalue = 5.29E-03
 Guess MOs from SCF MO coefficient file

 -----------------------------------------------------------------------
  General SCF calculation program by
  Eric Jon Sundstrom, Paul Horn, Yuezhi Mao, Dmitri Zuev, Alec White,
  David Stuck, Shaama M.S., Shane Yost, Joonho Lee, David Small,
  Daniel Levine, Susi Lehtola, Hugh Burton, Evgeny Epifanovsky
 -----------------------------------------------------------------------
 Exchange:     0.2000 Hartree-Fock + 0.0800 Slater + 0.7200 B88
 Correlation:  0.1900 VWN1RPA + 0.8100 LYP
 Using SG-1 standard quadrature grid
 using 8 threads for integral computing
 -------------------------------------------------------
 OpenMP Integral computing Module                
 Release: version 1.0, May 2013, Q-Chem Inc. Pittsburgh 
 -------------------------------------------------------
 -------------------------------------------------------
 OpenMP BLAS3 based DFT computing Module                
 Release: version 1.0, May 2013, Q-Chem Inc. Pittsburgh 
 -------------------------------------------------------
 A restricted SCF calculation will be
 performed using DIIS
 SCF converges when DIIS error is below 1.0e-08
 ---------------------------------------
  Cycle       Energy         DIIS error
 ---------------------------------------
    1     -94.5689692426      2.14e-03  
    2     -94.5708492598      3.80e-04  
    3     -94.5709014018      3.71e-05  
    4     -94.5709006764      6.89e-05  
    5     -94.5709016781      7.97e-06  
    6     -94.5709016951      2.07e-07  
    7     -94.5709016951      2.57e-08  
    8     -94.5709016951      3.34e-09  Convergence criterion met
 ---------------------------------------
 SCF time:   CPU 2.41s  wall 1.00s 
 SCF   energy in the final basis set =      -94.5709016951
 Total energy in the final basis set =      -94.5709016951
 
 --------------------------------------------------------------
 
                    Orbital Energies (a.u.)
 --------------------------------------------------------------
 
 Alpha MOs
 -- Occupied --
-14.376 -10.234  -0.940  -0.662  -0.389  -0.370  -0.370  -0.309
 -- Virtual --
  0.024   0.026   0.068   0.095   0.352   0.497   0.553   0.555
  0.588   0.730   0.730   0.748   0.896   0.993   1.163   1.403
  1.426   1.426   1.513   1.513   1.719   1.769   1.934   1.934
  2.122   2.122   2.217   2.302   2.527   2.528   2.792   2.898
  2.898   3.461   3.779   3.997   4.864
 --------------------------------------------------------------
 
          Ground-State Mulliken Net Atomic Charges

     Atom                 Charge (a.u.)
  ----------------------------------------
      1 C                     0.050829
      2 N                    -0.350159
      3 H                     0.300631
      4 H                    -0.000650
      5 H                    -0.000650
  ----------------------------------------
  Sum of atomic charges =    -0.000000

 -----------------------------------------------------------------
                    Cartesian Multipole Moments
 -----------------------------------------------------------------
    Charge (ESU x 10^10)
                 0.0000
    Dipole Moment (Debye)
         X       2.9081      Y       0.0000      Z      -0.0000
       Tot       2.9081
    Quadrupole Moments (Debye-Ang)
        XX      -7.9163     XY      -0.0000     YY     -13.0307
        XZ       0.0000     YZ       0.0000     ZZ     -13.6685
    Octopole Moments (Debye-Ang^2)
       XXX      15.7356    XXY       0.0000    XYY      -2.9454
       YYY       0.0000    XXZ      -0.0000    XYZ      -0.0000
       YYZ      -0.0000    XZZ      -1.0286    YZZ       0.0000
       ZZZ      -0.0000
    Hexadecapole Moments (Debye-Ang^3)
      XXXX    -150.7105   XXXY      -0.0000   XXYY     -28.3979
      XYYY      -0.0000   YYYY     -13.7133   XXXZ       0.0000
      XXYZ       0.0000   XYYZ       0.0000   YYYZ       0.0000
      XXZZ     -33.9286   XYZZ      -0.0000   YYZZ      -4.3859
      XZZZ       0.0000   YZZZ       0.0000   ZZZZ     -12.4615
 -----------------------------------------------------------------
 Calculating analytic gradient of the SCF energy
 Gradient of SCF Energy
            1           2           3           4           5
    1  -0.0047161   0.0016048   0.0004410   0.0013352   0.0013352
    2  -0.0000000   0.0000000  -0.0000000  -0.0558042   0.0558042
    3  -0.0000000   0.0000000   0.0000000   0.0000000   0.0000000
 Max gradient component =       5.580E-02
 RMS gradient           =       2.042E-02
 Gradient time:  CPU 2.11 s  wall 0.27 s
 Geometry Optimization Parameters
   NAtoms,    NIC,     NZ,  NCons,   NDum,   NFix, NCnnct, MaxDiis
        5      25       0       0       0       0       0       0

 Cartesian Hessian Update
 Hessian Updated using BFGS Update


** GEOMETRY OPTIMIZATION IN DELOCALIZED INTERNAL COORDINATES **
   Searching for a Minimum

   Optimization Cycle:   2

                       Coordinates (Angstroms)
     ATOM                X               Y               Z
      1  C         0.0076220412    0.0000000000    0.0000000000
      2  N         1.1856775698    0.0000000000    0.0000000000
      3  H         2.1846361461    0.0000000000    0.0000000000
      4  H        -3.0089678785   -0.4236562814    0.0000000000
      5  H        -3.0089678785    0.4236562814    0.0000000000
   Point Group: c1    Number of degrees of freedom:     9


   Energy is    -94.570901695

 Hessian Updated using BFGS Update

  4 Hessian modes will be used to form the next step
  Hessian Eigenvalues:
     0.011666    0.109162    0.476915    1.155918

 Minimum Search - Taking Simple RFO Step
 Searching for Lamda that Minimizes Along All modes
 Value Taken    Lamda =  -0.02225175
 Calculated Step too Large.  Step scaled by  0.723757
 Step Taken.  Stepsize is  0.300000

                             Maximum     Tolerance    Cnvgd?
         Gradient           0.048384      0.000300      NO
         Displacement       0.274492      0.001200      NO
         Energy change     -0.021993      0.000001      NO


 New Cartesian Coordinates Obtained by Inverse Iteration

 Displacement from previous Coordinates is:  0.208103
 ----------------------------------------------------------------
             Standard Nuclear Orientation (Angstroms)
    I     Atom           X                Y                Z
 ----------------------------------------------------------------
    1      C       0.0175234845     0.0000000000     0.0000000000
    2      N       1.1947474251     0.0000000000     0.0000000000
    3      H       2.1933505928     0.0000000000     0.0000000000
    4      H      -3.0228107512    -0.3478682504     0.0000000000
    5      H      -3.0228107512     0.3478682504     0.0000000000
 ----------------------------------------------------------------
 Nuclear Repulsion Energy =    28.8369773837 hartrees
 There are        8 alpha and        8 beta electrons
 Applying Cartesian multipole field
    Component          Value
    ---------          -----
     (2,0,0)        1.00000E-11
     (0,2,0)        2.00000E-10
     (0,0,2)       -3.00000E-10
 Nucleus-field energy     =     0.0000000014 hartrees
 Requested basis set is 6-31G(d,p)
 There are 17 shells and 45 basis functions
 A cutoff of  1.0D-11 yielded    135 shell pairs
 There are       992 function pairs
 Smallest overlap matrix eigenvalue = 5.29E-03
 Guess MOs from SCF MO coefficient file

 -----------------------------------------------------------------------
  General SCF calculation program by
  Eric Jon Sundstrom, Paul Horn, Yuezhi Mao, Dmitri Zuev, Alec White,
  David Stuck, Shaama M.S., Shane Yost, Joonho Lee, David Small,
  Daniel Levine, Susi Lehtola, Hugh Burton, Evgeny Epifanovsky
 -----------------------------------------------------------------------
 Exchange:     0.2000 Hartree-Fock + 0.0800 Slater + 0.7200 B88
 Correlation:  0.1900 VWN1RPA + 0.8100 LYP
 Using SG-1 standard quadrature grid
 using 8 threads for integral computing
 -------------------------------------------------------
 OpenMP Integral computing Module                
 Release: version 1.0, May 2013, Q-Chem Inc. Pittsburgh 
 -------------------------------------------------------
 -------------------------------------------------------
 OpenMP BLAS3 based DFT computing Module                
 Release: version 1.0, May 2013, Q-Chem Inc. Pittsburgh 
 -------------------------------------------------------
 A restricted SCF calculation will be
 performed using DIIS
 SCF converges when DIIS error is below 1.0e-08
 ---------------------------------------
  Cycle       Energy         DIIS error
 ---------------------------------------
    1     -94.5728142629      2.62e-03  
    2     -94.5755729540      5.48e-04  
    3     -94.5756826791      1.55e-05  
    4     -94.5756825130      3.16e-05  
    5     -94.5756827374      8.45e-07  
    6     -94.5756827376      1.05e-07  
    7     -94.5756827376      2.84e-08  
    8     -94.5756827376      2.95e-09  Convergence criterion met
 ---------------------------------------
 SCF time:   CPU 2.43s  wall 0.00s 
 SCF   energy in the final basis set =      -94.5756827376
 Total energy in the final basis set =      -94.5756827376
 
 --------------------------------------------------------------
 
                    Orbital Energies (a.u.)
 --------------------------------------------------------------
 
 Alpha MOs
 -- Occupied --
-14.376 -10.234  -0.941  -0.662  -0.419  -0.370  -0.370  -0.310
 -- Virtual --
  0.024   0.026   0.068   0.137   0.349   0.495   0.553   0.555
  0.567   0.716   0.729   0.731   0.896   1.107   1.164   1.404
  1.426   1.426   1.513   1.513   1.696   1.742   1.934   1.934
  2.122   2.122   2.302   2.505   2.692   2.694   2.793   2.899
  2.899   3.460   3.997   4.443   4.868
 --------------------------------------------------------------
 
          Ground-State Mulliken Net Atomic Charges

     Atom                 Charge (a.u.)
  ----------------------------------------
      1 C                     0.049878
      2 N                    -0.349038
      3 H                     0.300741
      4 H                    -0.000790
      5 H                    -0.000790
  ----------------------------------------
  Sum of atomic charges =    -0.000000

 -----------------------------------------------------------------
                    Cartesian Multipole Moments
 -----------------------------------------------------------------
    Charge (ESU x 10^10)
                 0.0000
    Dipole Moment (Debye)
         X       2.9173      Y      -0.0000      Z      -0.0000
       Tot       2.9173
    Quadrupole Moments (Debye-Ang)
        XX      -7.6542     XY       0.0000     YY     -13.0088
        XZ       0.0000     YZ       0.0000     ZZ     -13.4770
    Octopole Moments (Debye-Ang^2)
       XXX      13.8988    XXY      -0.0000    XYY      -3.0843
       YYY      -0.0000    XXZ       0.0000    XYZ       0.0000
       YYZ      -0.0000    XZZ      -1.6702    YZZ      -0.0000
       ZZZ      -0.0000
    Hexadecapole Moments (Debye-Ang^3)
      XXXX    -140.9861   XXXY       0.0000   XXYY     -28.2803
      XYYY       0.0000   YYYY     -12.9248   XXXZ      -0.0000
      XXYZ       0.0000   XYYZ       0.0000   YYYZ       0.0000
      XXZZ     -32.4148   XYZZ      -0.0000   YYZZ      -4.1938
      XZZZ       0.0000   YZZZ       0.0000   ZZZZ     -12.1679
 -----------------------------------------------------------------
 Calculating analytic gradient of the SCF energy
 Gradient of SCF Energy
            1           2           3           4           5
    1  -0.0025890   0.0003686   0.0001348   0.0010428   0.0010428
    2  -0.0000000   0.0000000   0.0000000   0.0383150  -0.0383150
    3  -0.0000000   0.0000000   0.0000000   0.0000000  -0.0000000
 Max gradient component =       3.832E-02
 RMS gradient           =       1.401E-02
 Gradient time:  CPU 2.16 s  wall 0.27 s
 Geometry Optimization Parameters
   NAtoms,    NIC,     NZ,  NCons,   NDum,   NFix, NCnnct, MaxDiis
        5      25       0       0       0       0       0       0

 Cartesian Hessian Update
 Hessian Updated using BFGS Update


** GEOMETRY OPTIMIZATION IN DELOCALIZED INTERNAL COORDINATES **
   Searching for a Minimum

   Optimization Cycle:   3

                       Coordinates (Angstroms)
     ATOM                X               Y               Z
      1  C         0.0175234845    0.0000000000    0.0000000000
      2  N         1.1947474251    0.0000000000    0.0000000000
      3  H         2.1933505928    0.0000000000    0.0000000000
      4  H        -3.0228107512   -0.3478682504    0.0000000000
      5  H        -3.0228107512    0.3478682504    0.0000000000
   Point Group: c1    Number of degrees of freedom:     9


   Energy is    -94.575682738

 Hessian Updated using BFGS Update

  4 Hessian modes will be used to form the next step
  Hessian Eigenvalues:
     0.011656    0.305569    0.476909    1.155789

 Minimum Search - Taking Simple RFO Step
 Searching for Lamda that Minimizes Along All modes
 Value Taken    Lamda =  -0.00450045
 Step Taken.  Stepsize is  0.146979

                             Maximum     Tolerance    Cnvgd?
         Gradient           0.032248      0.000300      NO
         Displacement       0.093235      0.001200      NO
         Energy change     -0.004781      0.000001      NO


 New Cartesian Coordinates Obtained by Inverse Iteration

 Displacement from previous Coordinates is:  0.101280
 ----------------------------------------------------------------
             Standard Nuclear Orientation (Angstroms)
    I     Atom           X                Y                Z
 ----------------------------------------------------------------
    1      C       0.0294619001     0.0000000000     0.0000000000
    2      N       1.2064960888     0.0000000000     0.0000000000
    3      H       2.2049520849     0.0000000000     0.0000000000
    4      H      -3.0404550369    -0.3781554056     0.0000000000
    5      H      -3.0404550369     0.3781554056     0.0000000000
 ----------------------------------------------------------------
 Nuclear Repulsion Energy =    28.7434804235 hartrees
 There are        8 alpha and        8 beta electrons
 Applying Cartesian multipole field
    Component          Value
    ---------          -----
     (2,0,0)        1.00000E-11
     (0,2,0)        2.00000E-10
     (0,0,2)       -3.00000E-10
 Nucleus-field energy     =     0.0000000014 hartrees
 Requested basis set is 6-31G(d,p)
 There are 17 shells and 45 basis functions
 A cutoff of  1.0D-11 yielded    135 shell pairs
 There are       992 function pairs
 Smallest overlap matrix eigenvalue = 5.31E-03
 Guess MOs from SCF MO coefficient file

 -----------------------------------------------------------------------
  General SCF calculation program by
  Eric Jon Sundstrom, Paul Horn, Yuezhi Mao, Dmitri Zuev, Alec White,
  David Stuck, Shaama M.S., Shane Yost, Joonho Lee, David Small,
  Daniel Levine, Susi Lehtola, Hugh Burton, Evgeny Epifanovsky
 -----------------------------------------------------------------------
 Exchange:     0.2000 Hartree-Fock + 0.0800 Slater + 0.7200 B88
 Correlation:  0.1900 VWN1RPA + 0.8100 LYP
 Using SG-1 standard quadrature grid
 using 8 threads for integral computing
 -------------------------------------------------------
 OpenMP Integral computing Module                
 Release: version 1.0, May 2013, Q-Chem Inc. Pittsburgh 
 -------------------------------------------------------
 -------------------------------------------------------
 OpenMP BLAS3 based DFT computing Module                
 Release: version 1.0, May 2013, Q-Chem Inc. Pittsburgh 
 -------------------------------------------------------
 A restricted SCF calculation will be
 performed using DIIS
 SCF converges when DIIS error is below 1.0e-08
 ---------------------------------------
  Cycle       Energy         DIIS error
 ---------------------------------------
    1     -94.5767195931      1.08e-03  
    2     -94.5771976237      2.15e-04  
    3     -94.5772146276      1.81e-05  
    4     -94.5772144053      3.67e-05  
    5     -94.5772146970      2.48e-06  
    6     -94.5772146987      1.86e-07  
    7     -94.5772146987      7.65e-09  Convergence criterion met
 ---------------------------------------
 SCF time:   CPU 2.15s  wall 0.00s 
 SCF   energy in the final basis set =      -94.5772146987
 Total energy in the final basis set =      -94.5772146987
 
 --------------------------------------------------------------
 
                    Orbital Energies (a.u.)
 --------------------------------------------------------------
 
 Alpha MOs
 -- Occupied --
-14.376 -10.234  -0.941  -0.662  -0.406  -0.370  -0.370  -0.310
 -- Virtual --
  0.024   0.026   0.068   0.120   0.349   0.496   0.553   0.555
  0.576   0.725   0.730   0.730   0.896   1.055   1.165   1.405
  1.426   1.426   1.513   1.513   1.700   1.742   1.935   1.935
  2.122   2.123   2.303   2.389   2.624   2.625   2.793   2.899
  2.899   3.459   3.997   4.113   4.869
 --------------------------------------------------------------
 
          Ground-State Mulliken Net Atomic Charges

     Atom                 Charge (a.u.)
  ----------------------------------------
      1 C                     0.049364
      2 N                    -0.348713
      3 H                     0.300662
      4 H                    -0.000657
      5 H                    -0.000657
  ----------------------------------------
  Sum of atomic charges =    -0.000000

 -----------------------------------------------------------------
                    Cartesian Multipole Moments
 -----------------------------------------------------------------
    Charge (ESU x 10^10)
                 0.0000
    Dipole Moment (Debye)
         X       2.9144      Y      -0.0000      Z      -0.0000
       Tot       2.9144
    Quadrupole Moments (Debye-Ang)
        XX      -7.6566     XY       0.0000     YY     -13.0208
        XZ      -0.0000     YZ       0.0000     ZZ     -13.5548
    Octopole Moments (Debye-Ang^2)
       XXX      14.4784    XXY      -0.0000    XYY      -3.1559
       YYY      -0.0000    XXZ      -0.0000    XYZ      -0.0000
       YYZ      -0.0000    XZZ      -1.5335    YZZ       0.0000
       ZZZ      -0.0000
    Hexadecapole Moments (Debye-Ang^3)
      XXXX    -146.8313   XXXY       0.0000   XXYY     -28.8084
      XYYY       0.0000   YYYY     -13.2227   XXXZ      -0.0000
      XXYZ      -0.0000   XYYZ      -0.0000   YYYZ       0.0000
      XXZZ     -33.5667   XYZZ       0.0000   YYZZ      -4.2672
      XZZZ      -0.0000   YZZZ       0.0000   ZZZZ     -12.2859
 -----------------------------------------------------------------
 Calculating analytic gradient of the SCF energy
 Gradient of SCF Energy
            1           2           3           4           5
    1  -0.0020693   0.0000571   0.0000029   0.0010046   0.0010046
    2   0.0000000   0.0000000  -0.0000000  -0.0104011   0.0104011
    3  -0.0000000   0.0000000   0.0000000   0.0000000  -0.0000000
 Max gradient component =       1.040E-02
 RMS gradient           =       3.853E-03
 Gradient time:  CPU 2.07 s  wall 0.26 s
 Geometry Optimization Parameters
   NAtoms,    NIC,     NZ,  NCons,   NDum,   NFix, NCnnct, MaxDiis
        5      25       0       0       0       0       0       0

 Cartesian Hessian Update
 Hessian Updated using BFGS Update


** GEOMETRY OPTIMIZATION IN DELOCALIZED INTERNAL COORDINATES **
   Searching for a Minimum

   Optimization Cycle:   4

                       Coordinates (Angstroms)
     ATOM                X               Y               Z
      1  C         0.0294619001    0.0000000000    0.0000000000
      2  N         1.2064960888    0.0000000000    0.0000000000
      3  H         2.2049520849    0.0000000000    0.0000000000
      4  H        -3.0404550369   -0.3781554056    0.0000000000
      5  H        -3.0404550369    0.3781554056    0.0000000000
   Point Group: c1    Number of degrees of freedom:     9


   Energy is    -94.577214699

 Hessian Updated using BFGS Update

  4 Hessian modes will be used to form the next step
  Hessian Eigenvalues:
     0.011230    0.401900    0.476908    1.155767

 Minimum Search - Taking Simple RFO Step
 Searching for Lamda that Minimizes Along All modes
 Value Taken    Lamda =  -0.00038481
 Step Taken.  Stepsize is  0.107971

                             Maximum     Tolerance    Cnvgd?
         Gradient           0.009364      0.000300      NO
         Displacement       0.075728      0.001200      NO
         Energy change     -0.001532      0.000001      NO


 New Cartesian Coordinates Obtained by Inverse Iteration

 Displacement from previous Coordinates is:  0.084892
 ----------------------------------------------------------------
             Standard Nuclear Orientation (Angstroms)
    I     Atom           X                Y                Z
 ----------------------------------------------------------------
    1      C       0.0456168685     0.0000000000     0.0000000000
    2      N       1.2226023144     0.0000000000     0.0000000000
    3      H       2.2210445973     0.0000000000     0.0000000000
    4      H      -3.0646318901    -0.3722526741     0.0000000000
    5      H      -3.0646318901     0.3722526741     0.0000000000
 ----------------------------------------------------------------
 Nuclear Repulsion Energy =    28.7121726140 hartrees
 There are        8 alpha and        8 beta electrons
 Applying Cartesian multipole field
    Component          Value
    ---------          -----
     (2,0,0)        1.00000E-11
     (0,2,0)        2.00000E-10
     (0,0,2)       -3.00000E-10
 Nucleus-field energy     =     0.0000000014 hartrees
 Requested basis set is 6-31G(d,p)
 There are 17 shells and 45 basis functions
 A cutoff of  1.0D-11 yielded    135 shell pairs
 There are       992 function pairs
 Smallest overlap matrix eigenvalue = 5.33E-03
 Guess MOs from SCF MO coefficient file

 -----------------------------------------------------------------------
  General SCF calculation program by
  Eric Jon Sundstrom, Paul Horn, Yuezhi Mao, Dmitri Zuev, Alec White,
  David Stuck, Shaama M.S., Shane Yost, Joonho Lee, David Small,
  Daniel Levine, Susi Lehtola, Hugh Burton, Evgeny Epifanovsky
 -----------------------------------------------------------------------
 Exchange:     0.2000 Hartree-Fock + 0.0800 Slater + 0.7200 B88
 Correlation:  0.1900 VWN1RPA + 0.8100 LYP
 Using SG-1 standard quadrature grid
 using 8 threads for integral computing
 -------------------------------------------------------
 OpenMP Integral computing Module                
 Release: version 1.0, May 2013, Q-Chem Inc. Pittsburgh 
 -------------------------------------------------------
 -------------------------------------------------------
 OpenMP BLAS3 based DFT computing Module                
 Release: version 1.0, May 2013, Q-Chem Inc. Pittsburgh 
 -------------------------------------------------------
 A restricted SCF calculation will be
 performed using DIIS
 SCF converges when DIIS error is below 1.0e-08
 ---------------------------------------
  Cycle       Energy         DIIS error
 ---------------------------------------
    1     -94.5774789691      2.17e-04  
    2     -94.5774976105      4.20e-05  
    3     -94.5774982466      7.94e-06  
    4     -94.5774982194      1.36e-05  
    5     -94.5774982609      4.57e-08  
    6     -94.5774982609      9.46e-09  Convergence criterion met
 ---------------------------------------
 SCF time:   CPU 1.84s  wall 1.00s 
 SCF   energy in the final basis set =      -94.5774982609
 Total energy in the final basis set =      -94.5774982609
 
 --------------------------------------------------------------
 
                    Orbital Energies (a.u.)
 --------------------------------------------------------------
 
 Alpha MOs
 -- Occupied --
-14.376 -10.234  -0.941  -0.662  -0.409  -0.370  -0.370  -0.310
 -- Virtual --
  0.025   0.026   0.068   0.123   0.348   0.496   0.553   0.555
  0.574   0.719   0.730   0.730   0.896   1.063   1.165   1.406
  1.426   1.426   1.513   1.513   1.698   1.734   1.934   1.935
  2.122   2.123   2.303   2.410   2.636   2.638   2.793   2.899
  2.899   3.458   3.996   4.168   4.870
 --------------------------------------------------------------
 
          Ground-State Mulliken Net Atomic Charges

     Atom                 Charge (a.u.)
  ----------------------------------------
      1 C                     0.048853
      2 N                    -0.348419
      3 H                     0.300742
      4 H                    -0.000588
      5 H                    -0.000588
  ----------------------------------------
  Sum of atomic charges =     0.000000

 -----------------------------------------------------------------
                    Cartesian Multipole Moments
 -----------------------------------------------------------------
    Charge (ESU x 10^10)
                 0.0000
    Dipole Moment (Debye)
         X       2.9143      Y       0.0000      Z      -0.0000
       Tot       2.9143
    Quadrupole Moments (Debye-Ang)
        XX      -7.5322     XY      -0.0000     YY     -13.0186
        XZ       0.0000     YZ      -0.0000     ZZ     -13.5397
    Octopole Moments (Debye-Ang^2)
       XXX      14.1645    XXY       0.0000    XYY      -3.3107
       YYY       0.0000    XXZ      -0.0000    XYZ      -0.0000
       YYZ      -0.0000    XZZ      -1.7147    YZZ       0.0000
       ZZZ      -0.0000
    Hexadecapole Moments (Debye-Ang^3)
      XXXX    -147.8325   XXXY      -0.0000   XXYY     -29.2442
      XYYY      -0.0000   YYYY     -13.1623   XXXZ       0.0000
      XXYZ      -0.0000   XYYZ       0.0000   YYYZ      -0.0000
      XXZZ     -33.9685   XYZZ      -0.0000   YYZZ      -4.2524
      XZZZ       0.0000   YZZZ      -0.0000   ZZZZ     -12.2626
 -----------------------------------------------------------------
 Calculating analytic gradient of the SCF energy
 Gradient of SCF Energy
            1           2           3           4           5
    1  -0.0017345   0.0000240  -0.0000026   0.0008566   0.0008566
    2  -0.0000000   0.0000000  -0.0000000  -0.0022288   0.0022288
    3  -0.0000000   0.0000000  -0.0000000   0.0000000   0.0000000
 Max gradient component =       2.229E-03
 RMS gradient           =       9.802E-04
 Gradient time:  CPU 2.09 s  wall 0.26 s
 Geometry Optimization Parameters
   NAtoms,    NIC,     NZ,  NCons,   NDum,   NFix, NCnnct, MaxDiis
        5      25       0       0       0       0       0       0

 Cartesian Hessian Update
 Hessian Updated using BFGS Update


** GEOMETRY OPTIMIZATION IN DELOCALIZED INTERNAL COORDINATES **
   Searching for a Minimum

   Optimization Cycle:   5

                       Coordinates (Angstroms)
     ATOM                X               Y               Z
      1  C         0.0456168685    0.0000000000    0.0000000000
      2  N         1.2226023144    0.0000000000    0.0000000000
      3  H         2.2210445973    0.0000000000    0.0000000000
      4  H        -3.0646318901   -0.3722526741    0.0000000000
      5  H        -3.0646318901    0.3722526741    0.0000000000
   Point Group: c1    Number of degrees of freedom:     9


   Energy is    -94.577498261

 Hessian Updated using BFGS Update

  4 Hessian modes will be used to form the next step
  Hessian Eigenvalues:
     0.005538    0.438215    0.476909    1.155765

 Minimum Search - Taking Simple RFO Step
 Searching for Lamda that Minimizes Along All modes
 Value Taken    Lamda =  -0.00031061
 Step Taken.  Stepsize is  0.226804

                             Maximum     Tolerance    Cnvgd?
         Gradient           0.002303      0.000300      NO
         Displacement       0.164828      0.001200      NO
         Energy change     -0.000284      0.000001      NO


 New Cartesian Coordinates Obtained by Inverse Iteration

 Displacement from previous Coordinates is:  0.177409
 ----------------------------------------------------------------
             Standard Nuclear Orientation (Angstroms)
    I     Atom           X                Y                Z
 ----------------------------------------------------------------
    1      C       0.0798818984     0.0000000000     0.0000000000
    2      N       1.2568000950     0.0000000000     0.0000000000
    3      H       2.2552259407     0.0000000000     0.0000000000
    4      H      -3.1159539671    -0.3681453187     0.0000000000
    5      H      -3.1159539671     0.3681453187     0.0000000000
 ----------------------------------------------------------------
 Nuclear Repulsion Energy =    28.6315898928 hartrees
 There are        8 alpha and        8 beta electrons
 Applying Cartesian multipole field
    Component          Value
    ---------          -----
     (2,0,0)        1.00000E-11
     (0,2,0)        2.00000E-10
     (0,0,2)       -3.00000E-10
 Nucleus-field energy     =     0.0000000015 hartrees
 Requested basis set is 6-31G(d,p)
 There are 17 shells and 45 basis functions
 A cutoff of  1.0D-11 yielded    135 shell pairs
 There are       992 function pairs
 Smallest overlap matrix eigenvalue = 5.38E-03
 Guess MOs from SCF MO coefficient file

 -----------------------------------------------------------------------
  General SCF calculation program by
  Eric Jon Sundstrom, Paul Horn, Yuezhi Mao, Dmitri Zuev, Alec White,
  David Stuck, Shaama M.S., Shane Yost, Joonho Lee, David Small,
  Daniel Levine, Susi Lehtola, Hugh Burton, Evgeny Epifanovsky
 -----------------------------------------------------------------------
 Exchange:     0.2000 Hartree-Fock + 0.0800 Slater + 0.7200 B88
 Correlation:  0.1900 VWN1RPA + 0.8100 LYP
 Using SG-1 standard quadrature grid
 using 8 threads for integral computing
 -------------------------------------------------------
 OpenMP Integral computing Module                
 Release: version 1.0, May 2013, Q-Chem Inc. Pittsburgh 
 -------------------------------------------------------
 -------------------------------------------------------
 OpenMP BLAS3 based DFT computing Module                
 Release: version 1.0, May 2013, Q-Chem Inc. Pittsburgh 
 -------------------------------------------------------
 A restricted SCF calculation will be
 performed using DIIS
 SCF converges when DIIS error is below 1.0e-08
 ---------------------------------------
  Cycle       Energy         DIIS error
 ---------------------------------------
    1     -94.5777115002      1.80e-04  
    2     -94.5777234311      3.08e-05  
    3     -94.5777237411      1.32e-05  
    4     -94.5777237330      1.47e-05  
    5     -94.5777237810      1.45e-07  
    6     -94.5777237810      7.08e-08  
    7     -94.5777237810      3.30e-09  Convergence criterion met
 ---------------------------------------
 SCF time:   CPU 2.11s  wall 0.00s 
 SCF   energy in the final basis set =      -94.5777237810
 Total energy in the final basis set =      -94.5777237810
 
 --------------------------------------------------------------
 
                    Orbital Energies (a.u.)
 --------------------------------------------------------------
 
 Alpha MOs
 -- Occupied --
-14.376 -10.235  -0.941  -0.662  -0.412  -0.370  -0.370  -0.311
 -- Virtual --
  0.025   0.026   0.068   0.124   0.345   0.496   0.553   0.554
  0.574   0.710   0.730   0.730   0.896   1.068   1.165   1.408
  1.426   1.426   1.512   1.512   1.696   1.722   1.934   1.934
  2.122   2.122   2.303   2.423   2.645   2.646   2.792   2.899
  2.899   3.455   3.995   4.207   4.870
 --------------------------------------------------------------
 
          Ground-State Mulliken Net Atomic Charges

     Atom                 Charge (a.u.)
  ----------------------------------------
      1 C                     0.047979
      2 N                    -0.347973
      3 H                     0.300867
      4 H                    -0.000437
      5 H                    -0.000437
  ----------------------------------------
  Sum of atomic charges =    -0.000000

 -----------------------------------------------------------------
                    Cartesian Multipole Moments
 -----------------------------------------------------------------
    Charge (ESU x 10^10)
                 0.0000
    Dipole Moment (Debye)
         X       2.9132      Y       0.0000      Z       0.0000
       Tot       2.9132
    Quadrupole Moments (Debye-Ang)
        XX      -7.2947     XY      -0.0000     YY     -13.0167
        XZ      -0.0000     YZ      -0.0000     ZZ     -13.5290
    Octopole Moments (Debye-Ang^2)
       XXX      13.7236    XXY       0.0000    XYY      -3.6320
       YYY       0.0000    XXZ       0.0000    XYZ      -0.0000
       YYZ       0.0000    XZZ      -2.0359    YZZ       0.0000
       ZZZ       0.0000
    Hexadecapole Moments (Debye-Ang^3)
      XXXX    -151.3351   XXXY      -0.0000   XXYY     -30.2424
      XYYY      -0.0000   YYYY     -13.1200   XXXZ      -0.0000
      XXYZ      -0.0000   XYYZ      -0.0000   YYYZ      -0.0000
      XXZZ     -35.0540   XYZZ      -0.0000   YYZZ      -4.2420
      XZZZ      -0.0000   YZZZ      -0.0000   ZZZZ     -12.2460
 -----------------------------------------------------------------
 Calculating analytic gradient of the SCF energy
 Gradient of SCF Energy
            1           2           3           4           5
    1  -0.0012354  -0.0000236  -0.0000068   0.0006329   0.0006329
    2  -0.0000000   0.0000000  -0.0000000   0.0039375  -0.0039375
    3   0.0000000  -0.0000000  -0.0000000   0.0000000  -0.0000000
 Max gradient component =       3.937E-03
 RMS gradient           =       1.491E-03
 Gradient time:  CPU 2.07 s  wall 0.26 s
 Geometry Optimization Parameters
   NAtoms,    NIC,     NZ,  NCons,   NDum,   NFix, NCnnct, MaxDiis
        5      25       0       0       0       0       0       0

 Cartesian Hessian Update
 Hessian Updated using BFGS Update


** GEOMETRY OPTIMIZATION IN DELOCALIZED INTERNAL COORDINATES **
   Searching for a Minimum

   Optimization Cycle:   6

                       Coordinates (Angstroms)
     ATOM                X               Y               Z
      1  C         0.0798818984    0.0000000000    0.0000000000
      2  N         1.2568000950    0.0000000000    0.0000000000
      3  H         2.2552259407    0.0000000000    0.0000000000
      4  H        -3.1159539671   -0.3681453187    0.0000000000
      5  H        -3.1159539671    0.3681453187    0.0000000000
   Point Group: c1    Number of degrees of freedom:     9


   Energy is    -94.577723781

 Hessian Updated using BFGS Update

  4 Hessian modes will be used to form the next step
  Hessian Eigenvalues:
     0.002181    0.476908    0.633752    1.155781

 Minimum Search - Taking Simple RFO Step
 Searching for Lamda that Minimizes Along All modes
 Value Taken    Lamda =  -0.00027602
 Calculated Step too Large.  Step scaled by  0.934466
 Step Taken.  Stepsize is  0.300000

                             Maximum     Tolerance    Cnvgd?
         Gradient           0.003089      0.000300      NO
         Displacement       0.219811      0.001200      NO
         Energy change     -0.000226      0.000001      NO


 New Cartesian Coordinates Obtained by Inverse Iteration

 Displacement from previous Coordinates is:  0.233821
 ----------------------------------------------------------------
             Standard Nuclear Orientation (Angstroms)
    I     Atom           X                Y                Z
 ----------------------------------------------------------------
    1      C       0.1251007046     0.0000000000     0.0000000000
    2      N       1.3019651874     0.0000000000     0.0000000000
    3      H       2.3003772481     0.0000000000     0.0000000000
    4      H      -3.1837215700    -0.3672598668     0.0000000000
    5      H      -3.1837215700     0.3672598668     0.0000000000
 ----------------------------------------------------------------
 Nuclear Repulsion Energy =    28.5215544522 hartrees
 There are        8 alpha and        8 beta electrons
 Applying Cartesian multipole field
    Component          Value
    ---------          -----
     (2,0,0)        1.00000E-11
     (0,2,0)        2.00000E-10
     (0,0,2)       -3.00000E-10
 Nucleus-field energy     =     0.0000000015 hartrees
 Requested basis set is 6-31G(d,p)
 There are 17 shells and 45 basis functions
 A cutoff of  1.0D-11 yielded    131 shell pairs
 There are       972 function pairs
 Smallest overlap matrix eigenvalue = 5.44E-03
 Guess MOs from SCF MO coefficient file

 -----------------------------------------------------------------------
  General SCF calculation program by
  Eric Jon Sundstrom, Paul Horn, Yuezhi Mao, Dmitri Zuev, Alec White,
  David Stuck, Shaama M.S., Shane Yost, Joonho Lee, David Small,
  Daniel Levine, Susi Lehtola, Hugh Burton, Evgeny Epifanovsky
 -----------------------------------------------------------------------
 Exchange:     0.2000 Hartree-Fock + 0.0800 Slater + 0.7200 B88
 Correlation:  0.1900 VWN1RPA + 0.8100 LYP
 Using SG-1 standard quadrature grid
 using 8 threads for integral computing
 -------------------------------------------------------
 OpenMP Integral computing Module                
 Release: version 1.0, May 2013, Q-Chem Inc. Pittsburgh 
 -------------------------------------------------------
 -------------------------------------------------------
 OpenMP BLAS3 based DFT computing Module                
 Release: version 1.0, May 2013, Q-Chem Inc. Pittsburgh 
 -------------------------------------------------------
 A restricted SCF calculation will be
 performed using DIIS
 SCF converges when DIIS error is below 1.0e-08
 ---------------------------------------
  Cycle       Energy         DIIS error
 ---------------------------------------
    1     -94.5779337247      1.13e-04  
    2     -94.5779377122      9.84e-06  
    3     -94.5779376820      1.66e-05  
    4     -94.5779377436      2.76e-06  
    5     -94.5779377452      2.06e-07  
    6     -94.5779377452      6.04e-08  
    7     -94.5779377452      2.65e-09  Convergence criterion met
 ---------------------------------------
 SCF time:   CPU 2.14s  wall 1.00s 
 SCF   energy in the final basis set =      -94.5779377452
 Total energy in the final basis set =      -94.5779377452
 
 --------------------------------------------------------------
 
                    Orbital Energies (a.u.)
 --------------------------------------------------------------
 
 Alpha MOs
 -- Occupied --
-14.376 -10.235  -0.941  -0.662  -0.413  -0.370  -0.370  -0.311
 -- Virtual --
  0.025   0.026   0.068   0.123   0.343   0.496   0.553   0.554
  0.575   0.700   0.729   0.730   0.897   1.067   1.165   1.409
  1.426   1.426   1.512   1.512   1.695   1.711   1.934   1.934
  2.122   2.122   2.303   2.423   2.645   2.646   2.791   2.899
  2.899   3.451   3.994   4.215   4.870
 --------------------------------------------------------------
 
          Ground-State Mulliken Net Atomic Charges

     Atom                 Charge (a.u.)
  ----------------------------------------
      1 C                     0.047092
      2 N                    -0.347548
      3 H                     0.300984
      4 H                    -0.000264
      5 H                    -0.000264
  ----------------------------------------
  Sum of atomic charges =     0.000000

 -----------------------------------------------------------------
                    Cartesian Multipole Moments
 -----------------------------------------------------------------
    Charge (ESU x 10^10)
                 0.0000
    Dipole Moment (Debye)
         X       2.9112      Y       0.0000      Z       0.0000
       Tot       2.9112
    Quadrupole Moments (Debye-Ang)
        XX      -7.0007     XY      -0.0000     YY     -13.0159
        XZ       0.0000     YZ       0.0000     ZZ     -13.5267
    Octopole Moments (Debye-Ang^2)
       XXX      13.3114    XXY       0.0000    XYY      -4.0512
       YYY       0.0000    XXZ       0.0000    XYZ      -0.0000
       YYZ       0.0000    XZZ      -2.4251    YZZ       0.0000
       ZZZ       0.0000
    Hexadecapole Moments (Debye-Ang^3)
      XXXX    -156.9744   XXXY      -0.0000   XXYY     -31.6449
      XYYY      -0.0000   YYYY     -13.1102   XXXZ       0.0000
      XXYZ      -0.0000   XYYZ       0.0000   YYYZ       0.0000
      XXZZ     -36.6618   XYZZ      -0.0000   YYZZ      -4.2396
      XZZZ       0.0000   YZZZ       0.0000   ZZZZ     -12.2419
 -----------------------------------------------------------------
 Calculating analytic gradient of the SCF energy
 Gradient of SCF Energy
            1           2           3           4           5
    1  -0.0008437  -0.0000623  -0.0000107   0.0004583   0.0004583
    2   0.0000000  -0.0000000  -0.0000000   0.0054627  -0.0054627
    3   0.0000000  -0.0000000   0.0000000  -0.0000000   0.0000000
 Max gradient component =       5.463E-03
 RMS gradient           =       2.014E-03
 Gradient time:  CPU 2.07 s  wall 0.26 s
 Geometry Optimization Parameters
   NAtoms,    NIC,     NZ,  NCons,   NDum,   NFix, NCnnct, MaxDiis
        5      25       0       0       0       0       0       0

 Cartesian Hessian Update
 Hessian Updated using BFGS Update


** GEOMETRY OPTIMIZATION IN DELOCALIZED INTERNAL COORDINATES **
   Searching for a Minimum

   Optimization Cycle:   7

                       Coordinates (Angstroms)
     ATOM                X               Y               Z
      1  C         0.1251007046    0.0000000000    0.0000000000
      2  N         1.3019651874    0.0000000000    0.0000000000
      3  H         2.3003772481    0.0000000000    0.0000000000
      4  H        -3.1837215700   -0.3672598668    0.0000000000
      5  H        -3.1837215700    0.3672598668    0.0000000000
   Point Group: c1    Number of degrees of freedom:     9


   Energy is    -94.577937745

 Hessian Updated using BFGS Update

  4 Hessian modes will be used to form the next step
  Hessian Eigenvalues:
     0.000856    0.476908    0.604402    1.155801

 Minimum Search - Taking Simple RFO Step
 Searching for Lamda that Minimizes Along All modes
 Value Taken    Lamda =  -0.00037249
 Calculated Step too Large.  Step scaled by  0.582382
 Step Taken.  Stepsize is  0.300000

                             Maximum     Tolerance    Cnvgd?
         Gradient           0.004491      0.000300      NO
         Displacement       0.220305      0.001200      NO
         Energy change     -0.000214      0.000001      NO


 New Cartesian Coordinates Obtained by Inverse Iteration

 Displacement from previous Coordinates is:  0.233434
 ----------------------------------------------------------------
             Standard Nuclear Orientation (Angstroms)
    I     Atom           X                Y                Z
 ----------------------------------------------------------------
    1      C       0.1702184424     0.0000000000     0.0000000000
    2      N       1.3470632691     0.0000000000     0.0000000000
    3      H       2.3454709247     0.0000000000     0.0000000000
    4      H      -3.2513763181    -0.3682573850     0.0000000000
    5      H      -3.2513763181     0.3682573850     0.0000000000
 ----------------------------------------------------------------
 Nuclear Repulsion Energy =    28.4137600600 hartrees
 There are        8 alpha and        8 beta electrons
 Applying Cartesian multipole field
    Component          Value
    ---------          -----
     (2,0,0)        1.00000E-11
     (0,2,0)        2.00000E-10
     (0,0,2)       -3.00000E-10
 Nucleus-field energy     =     0.0000000016 hartrees
 Requested basis set is 6-31G(d,p)
 There are 17 shells and 45 basis functions
 A cutoff of  1.0D-11 yielded    131 shell pairs
 There are       972 function pairs
 Smallest overlap matrix eigenvalue = 5.48E-03
 Guess MOs from SCF MO coefficient file

 -----------------------------------------------------------------------
  General SCF calculation program by
  Eric Jon Sundstrom, Paul Horn, Yuezhi Mao, Dmitri Zuev, Alec White,
  David Stuck, Shaama M.S., Shane Yost, Joonho Lee, David Small,
  Daniel Levine, Susi Lehtola, Hugh Burton, Evgeny Epifanovsky
 -----------------------------------------------------------------------
 Exchange:     0.2000 Hartree-Fock + 0.0800 Slater + 0.7200 B88
 Correlation:  0.1900 VWN1RPA + 0.8100 LYP
 Using SG-1 standard quadrature grid
 using 8 threads for integral computing
 -------------------------------------------------------
 OpenMP Integral computing Module                
 Release: version 1.0, May 2013, Q-Chem Inc. Pittsburgh 
 -------------------------------------------------------
 -------------------------------------------------------
 OpenMP BLAS3 based DFT computing Module                
 Release: version 1.0, May 2013, Q-Chem Inc. Pittsburgh 
 -------------------------------------------------------
 A restricted SCF calculation will be
 performed using DIIS
 SCF converges when DIIS error is below 1.0e-08
 ---------------------------------------
  Cycle       Energy         DIIS error
 ---------------------------------------
    1     -94.5781226731      9.88e-05  
    2     -94.5781259096      1.04e-05  
    3     -94.5781258989      1.42e-05  
    4     -94.5781259409      4.46e-06  
    5     -94.5781259453      1.17e-07  
    6     -94.5781259453      4.80e-08  
    7     -94.5781259453      2.29e-09  Convergence criterion met
 ---------------------------------------
 SCF time:   CPU 2.10s  wall 0.00s 
 SCF   energy in the final basis set =      -94.5781259453
 Total energy in the final basis set =      -94.5781259453
 
 --------------------------------------------------------------
 
                    Orbital Energies (a.u.)
 --------------------------------------------------------------
 
 Alpha MOs
 -- Occupied --
-14.376 -10.235  -0.941  -0.663  -0.414  -0.370  -0.370  -0.312
 -- Virtual --
  0.025   0.026   0.068   0.121   0.343   0.496   0.553   0.553
  0.577   0.689   0.729   0.729   0.896   1.063   1.164   1.409
  1.426   1.426   1.512   1.512   1.693   1.703   1.934   1.934
  2.122   2.122   2.303   2.416   2.642   2.642   2.790   2.899
  2.899   3.448   3.993   4.203   4.870
 --------------------------------------------------------------
 
          Ground-State Mulliken Net Atomic Charges

     Atom                 Charge (a.u.)
  ----------------------------------------
      1 C                     0.046476
      2 N                    -0.347280
      3 H                     0.301070
      4 H                    -0.000133
      5 H                    -0.000133
  ----------------------------------------
  Sum of atomic charges =     0.000000

 -----------------------------------------------------------------
                    Cartesian Multipole Moments
 -----------------------------------------------------------------
    Charge (ESU x 10^10)
                 0.0000
    Dipole Moment (Debye)
         X       2.9094      Y       0.0000      Z      -0.0000
       Tot       2.9094
    Quadrupole Moments (Debye-Ang)
        XX      -6.7199     XY      -0.0000     YY     -13.0161
        XZ      -0.0000     YZ       0.0000     ZZ     -13.5293
    Octopole Moments (Debye-Ang^2)
       XXX      13.0146    XXY       0.0000    XYY      -4.4672
       YYY       0.0000    XXZ      -0.0000    XYZ      -0.0000
       YYZ       0.0000    XZZ      -2.7982    YZZ       0.0000
       ZZZ       0.0000
    Hexadecapole Moments (Debye-Ang^3)
      XXXX    -163.2749   XXXY      -0.0000   XXYY     -33.1219
      XYYY      -0.0000   YYYY     -13.1196   XXXZ      -0.0000
      XXYZ       0.0000   XYYZ      -0.0000   YYYZ       0.0000
      XXZZ     -38.3873   XYZZ      -0.0000   YYZZ      -4.2419
      XZZZ      -0.0000   YZZZ       0.0000   ZZZZ     -12.2456
 -----------------------------------------------------------------
 Calculating analytic gradient of the SCF energy
 Gradient of SCF Energy
            1           2           3           4           5
    1  -0.0006186  -0.0000596  -0.0000093   0.0003438   0.0003438
    2  -0.0000000   0.0000000  -0.0000000   0.0041116  -0.0041116
    3   0.0000000  -0.0000000  -0.0000000  -0.0000000  -0.0000000
 Max gradient component =       4.112E-03
 RMS gradient           =       1.515E-03
 Gradient time:  CPU 2.07 s  wall 0.26 s
 Geometry Optimization Parameters
   NAtoms,    NIC,     NZ,  NCons,   NDum,   NFix, NCnnct, MaxDiis
        5      25       0       0       0       0       0       0

 Cartesian Hessian Update
 Hessian Updated using BFGS Update


** GEOMETRY OPTIMIZATION IN DELOCALIZED INTERNAL COORDINATES **
   Searching for a Minimum

   Optimization Cycle:   8

                       Coordinates (Angstroms)
     ATOM                X               Y               Z
      1  C         0.1702184424    0.0000000000    0.0000000000
      2  N         1.3470632691    0.0000000000    0.0000000000
      3  H         2.3454709247    0.0000000000    0.0000000000
      4  H        -3.2513763181   -0.3682573850    0.0000000000
      5  H        -3.2513763181    0.3682573850    0.0000000000
   Point Group: c1    Number of degrees of freedom:     9


   Energy is    -94.578125945

 Hessian Updated using BFGS Update

  4 Hessian modes will be used to form the next step
  Hessian Eigenvalues:
     0.000575    0.476908    0.533672    1.155778

 Minimum Search - Taking Simple RFO Step
 Searching for Lamda that Minimizes Along All modes
 Value Taken    Lamda =  -0.00031695
 Calculated Step too Large.  Step scaled by  0.527601
 Step Taken.  Stepsize is  0.300000

                             Maximum     Tolerance    Cnvgd?
         Gradient           0.003390      0.000300      NO
         Displacement       0.220378      0.001200      NO
         Energy change     -0.000188      0.000001      NO


 New Cartesian Coordinates Obtained by Inverse Iteration

 Displacement from previous Coordinates is:  0.233344
 ----------------------------------------------------------------
             Standard Nuclear Orientation (Angstroms)
    I     Atom           X                Y                Z
 ----------------------------------------------------------------
    1      C       0.2153053592     0.0000000000     0.0000000000
    2      N       1.3921452215     0.0000000000     0.0000000000
    3      H       2.3905522290     0.0000000000     0.0000000000
    4      H      -3.3190014048    -0.3695949481     0.0000000000
    5      H      -3.3190014048     0.3695949481     0.0000000000
 ----------------------------------------------------------------
 Nuclear Repulsion Energy =    28.3110417056 hartrees
 There are        8 alpha and        8 beta electrons
 Applying Cartesian multipole field
    Component          Value
    ---------          -----
     (2,0,0)        1.00000E-11
     (0,2,0)        2.00000E-10
     (0,0,2)       -3.00000E-10
 Nucleus-field energy     =     0.0000000017 hartrees
 Requested basis set is 6-31G(d,p)
 There are 17 shells and 45 basis functions
 A cutoff of  1.0D-11 yielded    129 shell pairs
 There are       970 function pairs
 Smallest overlap matrix eigenvalue = 5.52E-03
 Guess MOs from SCF MO coefficient file

 -----------------------------------------------------------------------
  General SCF calculation program by
  Eric Jon Sundstrom, Paul Horn, Yuezhi Mao, Dmitri Zuev, Alec White,
  David Stuck, Shaama M.S., Shane Yost, Joonho Lee, David Small,
  Daniel Levine, Susi Lehtola, Hugh Burton, Evgeny Epifanovsky
 -----------------------------------------------------------------------
 Exchange:     0.2000 Hartree-Fock + 0.0800 Slater + 0.7200 B88
 Correlation:  0.1900 VWN1RPA + 0.8100 LYP
 Using SG-1 standard quadrature grid
 using 8 threads for integral computing
 -------------------------------------------------------
 OpenMP Integral computing Module                
 Release: version 1.0, May 2013, Q-Chem Inc. Pittsburgh 
 -------------------------------------------------------
 -------------------------------------------------------
 OpenMP BLAS3 based DFT computing Module                
 Release: version 1.0, May 2013, Q-Chem Inc. Pittsburgh 
 -------------------------------------------------------
 A restricted SCF calculation will be
 performed using DIIS
 SCF converges when DIIS error is below 1.0e-08
 ---------------------------------------
  Cycle       Energy         DIIS error
 ---------------------------------------
    1     -94.5782611502      9.55e-05  
    2     -94.5782643541      1.19e-05  
    3     -94.5782643711      1.18e-05  
    4     -94.5782643928      6.60e-06  
    5     -94.5782644025      9.54e-08  
    6     -94.5782644025      3.54e-08  
    7     -94.5782644025      2.62e-09  Convergence criterion met
 ---------------------------------------
 SCF time:   CPU 2.09s  wall 0.00s 
 SCF   energy in the final basis set =      -94.5782644025
 Total energy in the final basis set =      -94.5782644025
 
 --------------------------------------------------------------
 
                    Orbital Energies (a.u.)
 --------------------------------------------------------------
 
 Alpha MOs
 -- Occupied --
-14.376 -10.235  -0.941  -0.663  -0.414  -0.370  -0.370  -0.312
 -- Virtual --
  0.025   0.026   0.068   0.119   0.342   0.497   0.553   0.553
  0.579   0.679   0.729   0.729   0.896   1.059   1.164   1.409
  1.426   1.426   1.512   1.512   1.692   1.699   1.934   1.934
  2.122   2.122   2.303   2.409   2.638   2.638   2.789   2.899
  2.899   3.446   3.993   4.189   4.870
 --------------------------------------------------------------
 
          Ground-State Mulliken Net Atomic Charges

     Atom                 Charge (a.u.)
  ----------------------------------------
      1 C                     0.046279
      2 N                    -0.347326
      3 H                     0.301129
      4 H                    -0.000041
      5 H                    -0.000041
  ----------------------------------------
  Sum of atomic charges =     0.000000

 -----------------------------------------------------------------
                    Cartesian Multipole Moments
 -----------------------------------------------------------------
    Charge (ESU x 10^10)
                 0.0000
    Dipole Moment (Debye)
         X       2.9085      Y      -0.0000      Z       0.0000
       Tot       2.9085
    Quadrupole Moments (Debye-Ang)
        XX      -6.4467     XY       0.0000     YY     -13.0163
        XZ       0.0000     YZ       0.0000     ZZ     -13.5328
    Octopole Moments (Debye-Ang^2)
       XXX      12.7907    XXY      -0.0000    XYY      -4.8824
       YYY       0.0000    XXZ       0.0000    XYZ       0.0000
       YYZ       0.0000    XZZ      -3.1680    YZZ       0.0000
       ZZZ      -0.0000
    Hexadecapole Moments (Debye-Ang^3)
      XXXX    -169.9744   XXXY       0.0000   XXYY     -34.6635
      XYYY      -0.0000   YYYY     -13.1323   XXXZ      -0.0000
      XXYZ       0.0000   XYYZ       0.0000   YYYZ       0.0000
      XXZZ     -40.1909   XYZZ      -0.0000   YYZZ      -4.2450
      XZZZ       0.0000   YZZZ       0.0000   ZZZZ     -12.2505
 -----------------------------------------------------------------
 Calculating analytic gradient of the SCF energy
 Gradient of SCF Energy
            1           2           3           4           5
    1  -0.0004235  -0.0000340  -0.0000044   0.0002309   0.0002309
    2   0.0000000   0.0000000  -0.0000000   0.0022280  -0.0022280
    3  -0.0000000   0.0000000   0.0000000  -0.0000000   0.0000000
 Max gradient component =       2.228E-03
 RMS gradient           =       8.252E-04
 Gradient time:  CPU 2.06 s  wall 0.26 s
 Geometry Optimization Parameters
   NAtoms,    NIC,     NZ,  NCons,   NDum,   NFix, NCnnct, MaxDiis
        5      25       0       0       0       0       0       0

 Cartesian Hessian Update
 Hessian Updated using BFGS Update


** GEOMETRY OPTIMIZATION IN DELOCALIZED INTERNAL COORDINATES **
   Searching for a Minimum

   Optimization Cycle:   9

                       Coordinates (Angstroms)
     ATOM                X               Y               Z
      1  C         0.2153053592    0.0000000000    0.0000000000
      2  N         1.3921452215    0.0000000000    0.0000000000
      3  H         2.3905522290    0.0000000000    0.0000000000
      4  H        -3.3190014048   -0.3695949481    0.0000000000
      5  H        -3.3190014048    0.3695949481    0.0000000000
   Point Group: c1    Number of degrees of freedom:     9


   Energy is    -94.578264403

 Hessian Updated using BFGS Update

  4 Hessian modes will be used to form the next step
  Hessian Eigenvalues:
     0.000575    0.476908    0.517459    1.155772

 Minimum Search - Taking Simple RFO Step
 Searching for Lamda that Minimizes Along All modes
 Value Taken    Lamda =  -0.00016453
 Calculated Step too Large.  Step scaled by  0.652954
 Step Taken.  Stepsize is  0.300000

                             Maximum     Tolerance    Cnvgd?
         Gradient           0.001821      0.000300      NO
         Displacement       0.220334      0.001200      NO
         Energy change     -0.000138      0.000001      NO


 New Cartesian Coordinates Obtained by Inverse Iteration

 Displacement from previous Coordinates is:  0.233352
 ----------------------------------------------------------------
             Standard Nuclear Orientation (Angstroms)
    I     Atom           X                Y                Z
 ----------------------------------------------------------------
    1      C       0.2603980173     0.0000000000     0.0000000000
    2      N       1.4372303594     0.0000000000     0.0000000000
    3      H       2.4356345556     0.0000000000     0.0000000000
    4      H      -3.3866314662    -0.3706858270     0.0000000000
    5      H      -3.3866314662     0.3706858270     0.0000000000
 ----------------------------------------------------------------
 Nuclear Repulsion Energy =    28.2143491030 hartrees
 There are        8 alpha and        8 beta electrons
 Applying Cartesian multipole field
    Component          Value
    ---------          -----
     (2,0,0)        1.00000E-11
     (0,2,0)        2.00000E-10
     (0,0,2)       -3.00000E-10
 Nucleus-field energy     =     0.0000000018 hartrees
 Requested basis set is 6-31G(d,p)
 There are 17 shells and 45 basis functions
 A cutoff of  1.0D-11 yielded    129 shell pairs
 There are       970 function pairs
 Smallest overlap matrix eigenvalue = 5.55E-03
 Guess MOs from SCF MO coefficient file

 -----------------------------------------------------------------------
  General SCF calculation program by
  Eric Jon Sundstrom, Paul Horn, Yuezhi Mao, Dmitri Zuev, Alec White,
  David Stuck, Shaama M.S., Shane Yost, Joonho Lee, David Small,
  Daniel Levine, Susi Lehtola, Hugh Burton, Evgeny Epifanovsky
 -----------------------------------------------------------------------
 Exchange:     0.2000 Hartree-Fock + 0.0800 Slater + 0.7200 B88
 Correlation:  0.1900 VWN1RPA + 0.8100 LYP
 Using SG-1 standard quadrature grid
 using 8 threads for integral computing
 -------------------------------------------------------
 OpenMP Integral computing Module                
 Release: version 1.0, May 2013, Q-Chem Inc. Pittsburgh 
 -------------------------------------------------------
 -------------------------------------------------------
 OpenMP BLAS3 based DFT computing Module                
 Release: version 1.0, May 2013, Q-Chem Inc. Pittsburgh 
 -------------------------------------------------------
 A restricted SCF calculation will be
 performed using DIIS
 SCF converges when DIIS error is below 1.0e-08
 ---------------------------------------
  Cycle       Energy         DIIS error
 ---------------------------------------
    1     -94.5783456429      8.43e-05  
    2     -94.5783481936      9.82e-06  
    3     -94.5783482044      9.97e-06  
    4     -94.5783482199      5.59e-06  
    5     -94.5783482269      7.44e-08  
    6     -94.5783482269      2.90e-08  
    7     -94.5783482269      2.07e-09  Convergence criterion met
 ---------------------------------------
 SCF time:   CPU 2.09s  wall 0.00s 
 SCF   energy in the final basis set =      -94.5783482269
 Total energy in the final basis set =      -94.5783482269
 
 --------------------------------------------------------------
 
                    Orbital Energies (a.u.)
 --------------------------------------------------------------
 
 Alpha MOs
 -- Occupied --
-14.376 -10.235  -0.941  -0.663  -0.415  -0.370  -0.370  -0.312
 -- Virtual --
  0.026   0.026   0.068   0.118   0.343   0.497   0.553   0.553
  0.581   0.670   0.729   0.729   0.896   1.055   1.163   1.408
  1.426   1.426   1.512   1.512   1.692   1.695   1.934   1.934
  2.122   2.122   2.303   2.402   2.634   2.635   2.788   2.899
  2.899   3.444   3.992   4.177   4.870
 --------------------------------------------------------------
 
          Ground-State Mulliken Net Atomic Charges

     Atom                 Charge (a.u.)
  ----------------------------------------
      1 C                     0.046293
      2 N                    -0.347494
      3 H                     0.301164
      4 H                     0.000019
      5 H                     0.000019
  ----------------------------------------
  Sum of atomic charges =     0.000000

 -----------------------------------------------------------------
                    Cartesian Multipole Moments
 -----------------------------------------------------------------
    Charge (ESU x 10^10)
                 0.0000
    Dipole Moment (Debye)
         X       2.9081      Y       0.0000      Z       0.0000
       Tot       2.9081
    Quadrupole Moments (Debye-Ang)
        XX      -6.1777     XY      -0.0000     YY     -13.0165
        XZ       0.0000     YZ       0.0000     ZZ     -13.5355
    Octopole Moments (Debye-Ang^2)
       XXX      12.6180    XXY      -0.0000    XYY      -5.2977
       YYY       0.0000    XXZ      -0.0000    XYZ       0.0000
       YYZ       0.0000    XZZ      -3.5396    YZZ       0.0000
       ZZZ       0.0000
    Hexadecapole Moments (Debye-Ang^3)
      XXXX    -176.9496   XXXY       0.0000   XXYY     -36.2662
      XYYY      -0.0000   YYYY     -13.1425   XXXZ       0.0000
      XXYZ       0.0000   XYYZ       0.0000   YYYZ      -0.0000
      XXZZ     -42.0564   XYZZ      -0.0000   YYZZ      -4.2475
      XZZZ       0.0000   YZZZ      -0.0000   ZZZZ     -12.2542
 -----------------------------------------------------------------
 Calculating analytic gradient of the SCF energy
 Gradient of SCF Energy
            1           2           3           4           5
    1  -0.0002609  -0.0000208  -0.0000021   0.0001419   0.0001419
    2   0.0000000  -0.0000000   0.0000000   0.0007057  -0.0007057
    3   0.0000000  -0.0000000   0.0000000   0.0000000  -0.0000000
 Max gradient component =       7.057E-04
 RMS gradient           =       2.714E-04
 Gradient time:  CPU 2.07 s  wall 0.26 s
 Geometry Optimization Parameters
   NAtoms,    NIC,     NZ,  NCons,   NDum,   NFix, NCnnct, MaxDiis
        5      25       0       0       0       0       0       0

 Cartesian Hessian Update
 Hessian Updated using BFGS Update


** GEOMETRY OPTIMIZATION IN DELOCALIZED INTERNAL COORDINATES **
   Searching for a Minimum

   Optimization Cycle:  10

                       Coordinates (Angstroms)
     ATOM                X               Y               Z
      1  C         0.2603980173    0.0000000000    0.0000000000
      2  N         1.4372303594    0.0000000000    0.0000000000
      3  H         2.4356345556    0.0000000000    0.0000000000
      4  H        -3.3866314662   -0.3706858270    0.0000000000
      5  H        -3.3866314662    0.3706858270    0.0000000000
   Point Group: c1    Number of degrees of freedom:     9


   Energy is    -94.578348227

 Hessian Updated using BFGS Update

  4 Hessian modes will be used to form the next step
  Hessian Eigenvalues:
     0.000448    0.476908    0.530878    1.155766

 Minimum Search - Taking Simple RFO Step
 Searching for Lamda that Minimizes Along All modes
 Value Taken    Lamda =  -0.00008054
 Calculated Step too Large.  Step scaled by  0.774623
 Step Taken.  Stepsize is  0.300000

                             Maximum     Tolerance    Cnvgd?
         Gradient           0.000547      0.000300      NO
[...]
 RMS gradient           =       5.617E-06
 Gradient time:  CPU 2.04 s  wall 0.26 s
 Geometry Optimization Parameters
   NAtoms,    NIC,     NZ,  NCons,   NDum,   NFix, NCnnct, MaxDiis
        5      25       0       0       0       0       0       0

 Cartesian Hessian Update
 Hessian Updated using BFGS Update


** GEOMETRY OPTIMIZATION IN DELOCALIZED INTERNAL COORDINATES **
   Searching for a Minimum

   Optimization Cycle:  26

                       Coordinates (Angstroms)
     ATOM                X               Y               Z
      1  C         0.8683927461    0.0000000000    0.0000000000
      2  N         2.0451824655    0.0000000000    0.0000000000
      3  H         3.0435835207    0.0000000000    0.0000000000
      4  H        -4.2985793662   -0.3713463302    0.0000000000
      5  H        -4.2985793662    0.3713463302    0.0000000000
   Point Group: c1    Number of degrees of freedom:     9


   Energy is    -94.578606923

 Hessian Updated using BFGS Update

  4 Hessian modes will be used to form the next step
  Hessian Eigenvalues:
     0.000021    0.476906    0.514555    1.156041
**WARNING** Magnitude of eigenvalue   1 too small.  Replaced by     0.000100

 Minimum Search - Taking Simple RFO Step
 Searching for Lamda that Minimizes Along All modes
 Value Taken    Lamda =  -0.00000123
 Step Taken.  Stepsize is  0.109613

                             Maximum     Tolerance    Cnvgd?
         Gradient           0.000009      0.000300     YES
         Displacement       0.080439      0.001200      NO
         Energy change     -0.000002      0.000001      NO


 New Cartesian Coordinates Obtained by Inverse Iteration

 Displacement from previous Coordinates is:  0.085202
 ----------------------------------------------------------------
             Standard Nuclear Orientation (Angstroms)
    I     Atom           X                Y                Z
 ----------------------------------------------------------------
    1      C       0.8848573040     0.0000000000     0.0000000000
    2      N       2.0616457875     0.0000000000     0.0000000000
    3      H       3.0600458473     0.0000000000     0.0000000000
    4      H      -4.3232744694    -0.3713491770     0.0000000000
    5      H      -4.3232744694     0.3713491770     0.0000000000
 ----------------------------------------------------------------
 Nuclear Repulsion Energy =    27.2865770172 hartrees
 There are        8 alpha and        8 beta electrons
 Applying Cartesian multipole field
    Component          Value
    ---------          -----
     (2,0,0)        1.00000E-11
     (0,2,0)        2.00000E-10
     (0,0,2)       -3.00000E-10
 Nucleus-field energy     =     0.0000000031 hartrees
 Requested basis set is 6-31G(d,p)
 There are 17 shells and 45 basis functions
 A cutoff of  1.0D-11 yielded    109 shell pairs
 There are       842 function pairs
 Smallest overlap matrix eigenvalue = 5.62E-03
 Guess MOs from SCF MO coefficient file

 -----------------------------------------------------------------------
  General SCF calculation program by
  Eric Jon Sundstrom, Paul Horn, Yuezhi Mao, Dmitri Zuev, Alec White,
  David Stuck, Shaama M.S., Shane Yost, Joonho Lee, David Small,
  Daniel Levine, Susi Lehtola, Hugh Burton, Evgeny Epifanovsky
 -----------------------------------------------------------------------
 Exchange:     0.2000 Hartree-Fock + 0.0800 Slater + 0.7200 B88
 Correlation:  0.1900 VWN1RPA + 0.8100 LYP
 Using SG-1 standard quadrature grid
 using 8 threads for integral computing
 -------------------------------------------------------
 OpenMP Integral computing Module                
 Release: version 1.0, May 2013, Q-Chem Inc. Pittsburgh 
 -------------------------------------------------------
 -------------------------------------------------------
 OpenMP BLAS3 based DFT computing Module                
 Release: version 1.0, May 2013, Q-Chem Inc. Pittsburgh 
 -------------------------------------------------------
 A restricted SCF calculation will be
 performed using DIIS
 SCF converges when DIIS error is below 1.0e-08
 ---------------------------------------
  Cycle       Energy         DIIS error
 ---------------------------------------
    1     -94.5786080699      5.89e-06  
    2     -94.5786080876      2.78e-07  
    3     -94.5786080876      5.77e-07  
    4     -94.5786080877      1.32e-08  
    5     -94.5786080877      7.36e-09  Convergence criterion met
 ---------------------------------------
 SCF time:   CPU 1.48s  wall 1.00s 
 SCF   energy in the final basis set =      -94.5786080877
 Total energy in the final basis set =      -94.5786080877
 
 --------------------------------------------------------------
 
                    Orbital Energies (a.u.)
 --------------------------------------------------------------
 
 Alpha MOs
 -- Occupied --
-14.377 -10.235  -0.942  -0.663  -0.423  -0.371  -0.371  -0.312
 -- Virtual --
  0.026   0.026   0.068   0.110   0.349   0.499   0.553   0.553
  0.586   0.633   0.729   0.729   0.895   1.045   1.158   1.402
  1.426   1.426   1.512   1.512   1.684   1.684   1.934   1.934
  2.122   2.122   2.303   2.388   2.625   2.625   2.786   2.899
  2.899   3.438   3.991   4.162   4.869
 --------------------------------------------------------------
 
          Ground-State Mulliken Net Atomic Charges

     Atom                 Charge (a.u.)
  ----------------------------------------
      1 C                     0.047001
      2 N                    -0.348295
      3 H                     0.301290
      4 H                     0.000002
      5 H                     0.000002
  ----------------------------------------
  Sum of atomic charges =     0.000000

 -----------------------------------------------------------------
                    Cartesian Multipole Moments
 -----------------------------------------------------------------
    Charge (ESU x 10^10)
                 0.0000
    Dipole Moment (Debye)
         X       2.9123      Y       0.0000      Z       0.0000
       Tot       2.9123
    Quadrupole Moments (Debye-Ang)
        XX      -2.5343     XY      -0.0000     YY     -13.0155
        XZ       0.0000     YZ      -0.0000     ZZ     -13.5367
    Octopole Moments (Debye-Ang^2)
       XXX      14.0377    XXY       0.0000    XYY     -11.0665
       YYY       0.0000    XXZ       0.0000    XYZ      -0.0000
       YYZ       0.0000    XZZ      -8.8132    YZZ       0.0000
       ZZZ       0.0000
    Hexadecapole Moments (Debye-Ang^3)
      XXXX    -292.1357   XXXY      -0.0000   XXYY     -64.6368
      XYYY      -0.0000   YYYY     -13.1469   XXXZ       0.0000
      XXYZ       0.0000   XYYZ       0.0000   YYYZ      -0.0000
      XXZZ     -74.2135   XYZZ      -0.0000   YYZZ      -4.2485
      XZZZ       0.0000   YZZZ      -0.0000   ZZZZ     -12.2550
 -----------------------------------------------------------------
 Calculating analytic gradient of the SCF energy
 Gradient of SCF Energy
            1           2           3           4           5
    1  -0.0000128  -0.0000000  -0.0000004   0.0000066   0.0000066
    2   0.0000000   0.0000000  -0.0000000   0.0000047  -0.0000047
    3   0.0000000  -0.0000000   0.0000000   0.0000000  -0.0000000
 Max gradient component =       1.275E-05
 RMS gradient           =       4.422E-06
 Gradient time:  CPU 2.05 s  wall 0.26 s
 Geometry Optimization Parameters
   NAtoms,    NIC,     NZ,  NCons,   NDum,   NFix, NCnnct, MaxDiis
        5      25       0       0       0       0       0       0

 Cartesian Hessian Update
 Hessian Updated using BFGS Update


** GEOMETRY OPTIMIZATION IN DELOCALIZED INTERNAL COORDINATES **
   Searching for a Minimum

   Optimization Cycle:  27

                       Coordinates (Angstroms)
     ATOM                X               Y               Z
      1  C         0.8848573040    0.0000000000    0.0000000000
      2  N         2.0616457875    0.0000000000    0.0000000000
      3  H         3.0600458473    0.0000000000    0.0000000000
      4  H        -4.3232744694   -0.3713491770    0.0000000000
      5  H        -4.3232744694    0.3713491770    0.0000000000
   Point Group: c1    Number of degrees of freedom:     9


   Energy is    -94.578608088

 Hessian Updated using BFGS Update

  4 Hessian modes will be used to form the next step
  Hessian Eigenvalues:
     0.000016    0.476908    0.514422    1.156043
**WARNING** Magnitude of eigenvalue   1 too small.  Replaced by     0.000100

 Minimum Search - Taking Simple RFO Step
 Searching for Lamda that Minimizes Along All modes
 Value Taken    Lamda =   0.00000000
 Step Taken.  Stepsize is  0.093391

                             Maximum     Tolerance    Cnvgd?
         Gradient           0.000007      0.000300     YES
         Displacement       0.068535      0.001200      NO
         Energy change     -0.000001      0.000001      NO


 New Cartesian Coordinates Obtained by Inverse Iteration

 Displacement from previous Coordinates is:  0.072592
 ----------------------------------------------------------------
             Standard Nuclear Orientation (Angstroms)
    I     Atom           X                Y                Z
 ----------------------------------------------------------------
    1      C       0.8988844467     0.0000000000     0.0000000000
    2      N       2.0756723275     0.0000000000     0.0000000000
    3      H       3.0740726700     0.0000000000     0.0000000000
    4      H      -4.3443147221    -0.3713512166     0.0000000000
    5      H      -4.3443147221     0.3713512166     0.0000000000
 ----------------------------------------------------------------
 Nuclear Repulsion Energy =    27.2715076249 hartrees
 There are        8 alpha and        8 beta electrons
 Applying Cartesian multipole field
    Component          Value
    ---------          -----
     (2,0,0)        1.00000E-11
     (0,2,0)        2.00000E-10
     (0,0,2)       -3.00000E-10
 Nucleus-field energy     =     0.0000000031 hartrees
 Requested basis set is 6-31G(d,p)
 There are 17 shells and 45 basis functions
 A cutoff of  1.0D-11 yielded    109 shell pairs
 There are       842 function pairs
 Smallest overlap matrix eigenvalue = 5.62E-03
 Guess MOs from SCF MO coefficient file

 -----------------------------------------------------------------------
  General SCF calculation program by
  Eric Jon Sundstrom, Paul Horn, Yuezhi Mao, Dmitri Zuev, Alec White,
  David Stuck, Shaama M.S., Shane Yost, Joonho Lee, David Small,
  Daniel Levine, Susi Lehtola, Hugh Burton, Evgeny Epifanovsky
 -----------------------------------------------------------------------
 Exchange:     0.2000 Hartree-Fock + 0.0800 Slater + 0.7200 B88
 Correlation:  0.1900 VWN1RPA + 0.8100 LYP
 Using SG-1 standard quadrature grid
 using 8 threads for integral computing
 -------------------------------------------------------
 OpenMP Integral computing Module                
 Release: version 1.0, May 2013, Q-Chem Inc. Pittsburgh 
 -------------------------------------------------------
 -------------------------------------------------------
 OpenMP BLAS3 based DFT computing Module                
 Release: version 1.0, May 2013, Q-Chem Inc. Pittsburgh 
 -------------------------------------------------------
 A restricted SCF calculation will be
 performed using DIIS
 SCF converges when DIIS error is below 1.0e-08
 ---------------------------------------
  Cycle       Energy         DIIS error
 ---------------------------------------
    1     -94.5786089302      4.73e-06  
    2     -94.5786089415      2.52e-07  
    3     -94.5786089415      5.44e-07  
    4     -94.5786089415      1.03e-08  
    5     -94.5786089415      5.09e-09  Convergence criterion met
 ---------------------------------------
 SCF time:   CPU 1.48s  wall 0.00s 
 SCF   energy in the final basis set =      -94.5786089415
 Total energy in the final basis set =      -94.5786089415
 
 --------------------------------------------------------------
 
                    Orbital Energies (a.u.)
 --------------------------------------------------------------
 
 Alpha MOs
 -- Occupied --
-14.377 -10.235  -0.942  -0.663  -0.423  -0.371  -0.371  -0.312
 -- Virtual --
  0.026   0.026   0.068   0.110   0.349   0.499   0.553   0.553
  0.586   0.633   0.729   0.729   0.895   1.045   1.158   1.402
  1.426   1.426   1.512   1.512   1.684   1.684   1.934   1.934
  2.122   2.122   2.303   2.388   2.625   2.625   2.786   2.899
  2.899   3.438   3.991   4.162   4.869
 --------------------------------------------------------------
 
          Ground-State Mulliken Net Atomic Charges

     Atom                 Charge (a.u.)
  ----------------------------------------
      1 C                     0.047009
      2 N                    -0.348303
      3 H                     0.301291
      4 H                     0.000002
      5 H                     0.000002
  ----------------------------------------
  Sum of atomic charges =     0.000000

 -----------------------------------------------------------------
                    Cartesian Multipole Moments
 -----------------------------------------------------------------
    Charge (ESU x 10^10)
                 0.0000
    Dipole Moment (Debye)
         X       2.9123      Y       0.0000      Z       0.0000
       Tot       2.9123
    Quadrupole Moments (Debye-Ang)
        XX      -2.4523     XY      -0.0000     YY     -13.0155
        XZ       0.0000     YZ      -0.0000     ZZ     -13.5367
    Octopole Moments (Debye-Ang^2)
       XXX      14.1467    XXY       0.0000    XYY     -11.1961
       YYY       0.0000    XXZ       0.0000    XYZ      -0.0000
       YYZ       0.0000    XZZ      -8.9319    YZZ       0.0000
       ZZZ       0.0000
    Hexadecapole Moments (Debye-Ang^3)
      XXXX    -295.0506   XXXY      -0.0000   XXYY     -65.4072
      XYYY      -0.0000   YYYY     -13.1469   XXXZ       0.0000
      XXYZ      -0.0000   XYYZ       0.0000   YYYZ      -0.0000
      XXZZ     -75.0791   XYZZ      -0.0000   YYZZ      -4.2485
      XZZZ       0.0000   YZZZ      -0.0000   ZZZZ     -12.2550
 -----------------------------------------------------------------
 Calculating analytic gradient of the SCF energy
 Gradient of SCF Energy
            1           2           3           4           5
    1  -0.0000113  -0.0000002   0.0000000   0.0000057   0.0000057
    2  -0.0000000  -0.0000000  -0.0000000   0.0000032  -0.0000032
    3   0.0000000  -0.0000000  -0.0000000   0.0000000  -0.0000000
 Max gradient component =       1.132E-05
 RMS gradient           =       3.784E-06
 Gradient time:  CPU 2.04 s  wall 0.26 s
 Geometry Optimization Parameters
   NAtoms,    NIC,     NZ,  NCons,   NDum,   NFix, NCnnct, MaxDiis
        5      25       0       0       0       0       0       0

 Cartesian Hessian Update
 Hessian Updated using BFGS Update


** GEOMETRY OPTIMIZATION IN DELOCALIZED INTERNAL COORDINATES **
   Searching for a Minimum

   Optimization Cycle:  28

                       Coordinates (Angstroms)
     ATOM                X               Y               Z
      1  C         0.8988844467    0.0000000000    0.0000000000
      2  N         2.0756723275    0.0000000000    0.0000000000
      3  H         3.0740726700    0.0000000000    0.0000000000
      4  H        -4.3443147221   -0.3713512166    0.0000000000
      5  H        -4.3443147221    0.3713512166    0.0000000000
   Point Group: c1    Number of degrees of freedom:     9


   Energy is    -94.578608942

 Hessian Updated using BFGS Update

  4 Hessian modes will be used to form the next step
  Hessian Eigenvalues:
     0.000013    0.476909    0.514316    1.156042
**WARNING** Magnitude of eigenvalue   1 too small.  Replaced by     0.000100

 Minimum Search - Taking Simple RFO Step
 Searching for Lamda that Minimizes Along All modes
 Value Taken    Lamda =   0.00000000
 Step Taken.  Stepsize is  0.081537

                             Maximum     Tolerance    Cnvgd?
         Gradient           0.000006      0.000300     YES
         Displacement       0.059836      0.001200      NO
         Energy change     -0.000001      0.000001     YES


                       Distance Matrix (Angstroms)
             C (  1)   N (  2)   H (  3)   H (  4)
   N (  2)  1.176788
   H (  3)  2.175188  0.998400
   H (  4)  5.256333  6.430718  7.427676
   H (  5)  5.256333  6.430718  7.427676  0.742702
 
 Final energy is   -94.5786089415494     


 ******************************
 **  OPTIMIZATION CONVERGED  **
 ******************************

                       Coordinates (Angstroms)
     ATOM                X               Y               Z
      1  C         0.8988844467    0.0000000000    0.0000000000
      2  N         2.0756723275    0.0000000000    0.0000000000
      3  H         3.0740726700    0.0000000000    0.0000000000
      4  H        -4.3443147221   -0.3713512166    0.0000000000
      5  H        -4.3443147221    0.3713512166    0.0000000000

Z-matrix Print:
$molecule
0 1
N 
H  1 0.998400
C  1 1.176788 2 180.000000
H  3 5.256333 1 175.948773 2 0.000000 0
H  4 0.742702 3 85.948773 1 0.000000 0
$end

 
 --------------------------------------------------------------
 
                    Orbital Energies (a.u.)
 --------------------------------------------------------------
 
 Alpha MOs
 -- Occupied --
-14.377 -10.235  -0.942  -0.663  -0.423  -0.371  -0.371  -0.312
 -- Virtual --
  0.026   0.026   0.068   0.110   0.349   0.499   0.553   0.553
  0.586   0.633   0.729   0.729   0.895   1.045   1.158   1.402
  1.426   1.426   1.512   1.512   1.684   1.684   1.934   1.934
  2.122   2.122   2.303   2.388   2.625   2.625   2.786   2.899
  2.899   3.438   3.991   4.162   4.869
 --------------------------------------------------------------
 
          Ground-State Mulliken Net Atomic Charges

     Atom                 Charge (a.u.)
  ----------------------------------------
      1 C                     0.047009
      2 N                    -0.348303
      3 H                     0.301291
      4 H                     0.000002
      5 H                     0.000002
  ----------------------------------------
  Sum of atomic charges =     0.000000

 -----------------------------------------------------------------
                    Cartesian Multipole Moments
 -----------------------------------------------------------------
    Charge (ESU x 10^10)
                 0.0000
    Dipole Moment (Debye)
         X       2.9123      Y       0.0000      Z       0.0000
       Tot       2.9123
    Quadrupole Moments (Debye-Ang)
        XX      -2.4523     XY      -0.0000     YY     -13.0155
        XZ       0.0000     YZ      -0.0000     ZZ     -13.5367
    Octopole Moments (Debye-Ang^2)
       XXX      14.1467    XXY       0.0000    XYY     -11.1961
       YYY       0.0000    XXZ       0.0000    XYZ      -0.0000
       YYZ       0.0000    XZZ      -8.9319    YZZ       0.0000
       ZZZ       0.0000
    Hexadecapole Moments (Debye-Ang^3)
      XXXX    -295.0506   XXXY      -0.0000   XXYY     -65.4072
      XYYY      -0.0000   YYYY     -13.1469   XXXZ       0.0000
      XXYZ      -0.0000   XYYZ       0.0000   YYYZ      -0.0000
      XXZZ     -75.0791   XYZZ      -0.0000   YYZZ      -4.2485
      XZZZ       0.0000   YZZZ      -0.0000   ZZZZ     -12.2550
 -----------------------------------------------------------------
Archival summary:
1\1\node1\OPT\ProcedureUnspecified\6-31G**\113\songzl\ThuApr613:59:312023ThuApr613:59:312023\0\\#,OPT,ProcedureUnspecified,6-31G**,\\0,1\N\H,1,0.9984\C,1,1.17679,2,180\H,3,5.25633,1,175.949,2,0,0\H,4,0.742702,3,85.9488,1,0,0\\\@

 Total job time:  15.78s(wall), 124.12s(cpu) 
 Thu Apr  6 13:59:31 2023

        *************************************************************
        *                                                           *
        *  Thank you very much for using Q-Chem.  Have a nice day.  *
        *                                                           *
        *************************************************************


