
Running Job 1 of 1 qchem_batch_opt.inp
qchem qchem_batch_opt.inp_2218.0 /tmp/songzl/qchem_baker_set/qchem2218/ 1
/apps/apps/qchem/qc51/exe/qcprog.exe_s qchem_batch_opt.inp_2218.0 /tmp/songzl/qchem_baker_set/qchem2218/
Check license passed

                  Welcome to Q-Chem
     A Quantum Leap Into The Future Of Chemistry


 Q-Chem 5.1, Q-Chem, Inc., Pleasanton, CA (2018)

 Yihan Shao,  Zhengting Gan,  E. Epifanovsky,  A. T. B. Gilbert,  M. Wormit,  
 J. Kussmann,  A. W. Lange,  A. Behn,  Jia Deng,  Xintian Feng,  D. Ghosh,  
 M. Goldey,  P. R. Horn,  L. D. Jacobson,  I. Kaliman,  T. Kus,  A. Landau,  
 Jie Liu,  E. I. Proynov,  R. M. Richard,  R. P. Steele,  E. J. Sundstrom,  
 H. L. Woodcock III,  P. M. Zimmerman,  D. Zuev,  B. Albrecht,  E. Alguire,  
 S. A. Baeppler,  D. Barton,  Z. Benda,  Y. A. Bernard,  E. J. Berquist,  
 K. B. Bravaya,  H. Burton,  D. Casanova,  Chun-Min Chang,  Yunqing Chen,  
 A. Chien,  K. D. Closser,  M. P. Coons,  S. Coriani,  S. Dasgupta,  
 A. L. Dempwolff,  M. Diedenhofen,  Hainam Do,  R. G. Edgar,  Po-Tung Fang,  
 S. Faraji,  S. Fatehi,  Qingguo Feng,  K. D. Fenk,  J. Fosso-Tande,  
 Qinghui Ge,  A. Ghysels,  G. Gidofalvi,  J. Gomes,  J. Gonthier,  A. Gunina,  
 D. Hait,  M. W. D. Hanson-Heine,  P. H. P. Harbach,  A. W. Hauser,  
 J. E. Herr,  E. G. Hohenstein,  Z. C. Holden,  Kerwin Hui,  B. C. Huynh,  
 T.-C. Jagau,  Hyunjun Ji,  B. Kaduk,  K. Khistyaev,  Jaehoon Kim,  
 P. Klunzinger,  K. Koh,  D. Kosenkov,  L. Koulias,  T. Kowalczyk,  
 C. M. Krauter,  A. Kunitsa,  Ka Un Lao,  A. Laurent,  K. V. Lawler,  
 Joonho Lee,  D. Lefrancois,  S. Lehtola,  D. S. Levine,  Yi-Pei Li,  
 You-Sheng Lin,  Fenglai Liu,  E. Livshits,  A. Luenser,  P. Manohar,  
 E. Mansoor,  S. F. Manzer,  Shan-Ping Mao,  Yuezhi Mao,  N. Mardirossian,  
 A. V. Marenich,  T. Markovich,  L. A. Martinez-Martinez,  S. A. Maurer,  
 N. J. Mayhall,  S. C. McKenzie,  J.-M. Mewes,  A. F. Morrison,  
 J. W. Mullinax,  K. Nanda,  T. S. Nguyen-Beck,  R. Olivares-Amaya,  
 J. A. Parkhill,  T. M. Perrine,  F. Plasser,  P. Pokhilko,  S. Prager,  
 A. Prociuk,  E. Ramos,  D. R. Rehn,  F. Rob,  M. Schneider,  N. Sergueev,  
 S. M. Sharada,  S. Sharma,  D. W. Small,  T. Stauch,  T. Stein,  
 Yu-Chuan Su,  A. J. W. Thom,  A. Tkatchenko,  T. Tsuchimochi,  N. M. Tubman,  
 L. Vogt,  M. L. Vidal,  O. Vydrov,  M. A. Watson,  J. Wenzel,  
 M. de Wergifosse,  T. A. Wesolowski,  A. White,  J. Witte,  A. Yamada,  
 Jun Yang,  K. Yao,  S. Yeganeh,  S. R. Yost,  Zhi-Qiang You,  A. Zech,  
 Igor Ying Zhang,  Xing Zhang,  Yan Zhao,  Ying Zhu,  B. R. Brooks,  
 G. K. L. Chan,  C. J. Cramer,  M. S. Gordon,  W. J. Hehre,  A. Klamt,  
 M. W. Schmidt,  C. D. Sherrill,  D. G. Truhlar,  A. Aspuru-Guzik,  R. Baer,  
 A. T. Bell,  N. A. Besley,  Jeng-Da Chai,  A. E. DePrince, III,  
 R. A. DiStasio Jr.,  A. Dreuw,  B. D. Dunietz,  T. R. Furlani,  
 Chao-Ping Hsu,  Yousung Jung,  Jing Kong,  D. S. Lambrecht,  WanZhen Liang,  
 C. Ochsenfeld,  V. A. Rassolov,  L. V. Slipchenko,  J. E. Subotnik,  
 T. Van Voorhis,  J. M. Herbert,  A. I. Krylov,  P. M. W. Gill,  M. Head-Gordon

 Contributors to earlier versions of Q-Chem not listed above: 
 R. D. Adamson,  B. Austin,  J. Baker,  G. J. O. Beran,  K. Brandhorst,  
 S. T. Brown,  E. F. C. Byrd,  A. K. Chakraborty,  C.-L. Cheng,  
 Siu Hung Chien,  D. M. Chipman,  D. L. Crittenden,  H. Dachsel,  
 R. J. Doerksen,  A. D. Dutoi,  L. Fusti-Molnar,  W. A. Goddard III,  
 A. Golubeva-Zadorozhnaya,  S. R. Gwaltney,  G. Hawkins,  A. Heyden,  
 S. Hirata,  G. Kedziora,  F. J. Keil,  C. Kelley,  Jihan Kim,  R. A. King,  
 R. Z. Khaliullin,  P. P. Korambath,  W. Kurlancheek,  A. M. Lee,  M. S. Lee,  
 S. V. Levchenko,  Ching Yeh Lin,  D. Liotard,  R. C. Lochan,  I. Lotan,  
 P. E. Maslen,  N. Nair,  D. P. O'Neill,  D. Neuhauser,  E. Neuscamman,  
 C. M. Oana,  R. Olson,  B. Peters,  R. Peverati,  P. A. Pieniazek,  
 Y. M. Rhee,  J. Ritchie,  M. A. Rohrdanz,  E. Rosta,  N. J. Russ,  
 H. F. Schaefer III,  N. E. Schultz,  N. Shenvi,  A. C. Simmonett,  A. Sodt,  
 D. Stuck,  K. S. Thanthiriwatte,  V. Vanovschi,  Tao Wang,  A. Warshel,  
 C. F. Williams,  Q. Wu,  X. Xu,  W. Zhang

 Please cite Q-Chem as follows:
 Y. Shao et al., Mol. Phys. 113, 184-215 (2015)
 DOI: 10.1080/00268976.2014.952696

 Q-Chem 5.1.1 for Intel X86 EM64T Linux

 Parts of Q-Chem use Armadillo 8.300.2 (Tropical Shenanigans).
 http://arma.sourceforge.net/

 Q-Chem begins on Thu Apr  6 18:15:42 2023  

Host: 
0

     Scratch files written to /tmp/songzl/qchem_baker_set/qchem2218//
 Aug318 |scratch|qcdevops|jenkins|workspace|build_RNUM 6609   
Processing $rem in /apps/apps/qchem/qc51/config/preferences.
 MEM_TOTAL  1000 
The previous job contains 0 fragments, simply inherited here
Input Ideriv = 2
Curr. Ideriv = -1
Max.  Ideriv = 2

Checking the input file for inconsistencies... 	...done.

--------------------------------------------------------------
User input:
--------------------------------------------------------------
$molecule
READ ./zmat.inp
$end

$rem
mem_total               230000
mem_static              2048
job_type                optimization
basis                   6-31g**
method                  b3lyp
symmetry                false
sym_ignore              true
geom_opt_max_cycles     500
$end
--------------------------------------------------------------
 ----------------------------------------------------------------
             Standard Nuclear Orientation (Angstroms)
    I     Atom           X                Y                Z
 ----------------------------------------------------------------
    1      H      -0.0951212793     0.0000000000     1.4513425628
    2      N       1.0695577231     0.0000000000     1.6110434927
    3      C       2.0752354192     0.0000000000     1.7505818235
    4      C       4.1059530700     0.0000000000     2.0510819294
    5      S       5.6211158665     0.0000000000     2.2992228707
 ----------------------------------------------------------------
 Nuclear Repulsion Energy =   105.3489087393 hartrees
 There are       18 alpha and       18 beta electrons
 Requested basis set is 6-31G(d,p)
 There are 20 shells and 69 basis functions

 Total QAlloc Memory Limit 230000 MB
 Mega-Array Size      2002 MB
 MEM_STATIC part      2048 MB
 A cutoff of  1.0D-11 yielded    183 shell pairs
 There are      2283 function pairs
 
 -------------------------------------------------------
 OpenMP Integral Computing Module                       
 Release: version 1.0, May 2013, Q-Chem Inc. Pittsburgh 
 -------------------------------------------------------
 Integral Job Info:
 Integral job number is                      11
 Integral operator is                         1
 short-range coefficients                     0
 long-range coefficients              100000000
 Omega coefficients                           0
 if combine SR and LR in K                    0
 Integral screening is                        0
 Integral computing path is                   2
 max size of driver memory is            800000
 size of driver memory is                593474
 size of scratch memory is             15267112
 max col of scratch BK array               1296
 max len of scratch array in speh3          155
 max len of scratch index in speh4           18
 max int batch size is                      520
 min int batch size is                       52
 fixed nKL is                                52
 max L of basis functions is                  2
 order of int derivative is                   0
 number of shells is                         20
 number of basis is                          69
 number of cartesian basis is                69
 number of contracted shell pairs           183
 number of primitive shell pairs            992
 maxK2 (contraction) of shell pair           36
 max number of K2 of shell pair               1
 max number of CS2 of shell pair             21
 max number of PS2 of shell pair            144
 mem total for path MDJ                  513036
 -------------------------------------------------------
 Smallest overlap matrix eigenvalue = 1.33E-03

 Scale SEOQF with 1.000000e-02/1.000000e+00/1.000000e-01

 Standard Electronic Orientation quadrupole field applied
 Nucleus-field energy     =    -0.0000000136 hartrees
 Guess from superposition of atomic densities
 Warning:  Energy on first SCF cycle will be non-variational
 SAD guess density has 36.000000 electrons

 -----------------------------------------------------------------------
  General SCF calculation program by
  Eric Jon Sundstrom, Paul Horn, Yuezhi Mao, Dmitri Zuev, Alec White,
  David Stuck, Shaama M.S., Shane Yost, Joonho Lee, David Small,
  Daniel Levine, Susi Lehtola, Hugh Burton, Evgeny Epifanovsky
 -----------------------------------------------------------------------
 Exchange:     0.2000 Hartree-Fock + 0.0800 Slater + 0.7200 B88
 Correlation:  0.1900 VWN1RPA + 0.8100 LYP
 Using SG-1 standard quadrature grid
 using 8 threads for integral computing
 -------------------------------------------------------
 OpenMP Integral computing Module                
 Release: version 1.0, May 2013, Q-Chem Inc. Pittsburgh 
 -------------------------------------------------------
 -------------------------------------------------------
 OpenMP BLAS3 based DFT computing Module                
 Release: version 1.0, May 2013, Q-Chem Inc. Pittsburgh 
 -------------------------------------------------------
 A restricted SCF calculation will be
 performed using DIIS
 SCF converges when DIIS error is below 1.0e-08
 ---------------------------------------
  Cycle       Energy         DIIS error
 ---------------------------------------
    1    -530.2587533952      9.44e-02  
    2    -529.2869417427      1.35e-02  
    3    -528.7180253133      2.95e-02  
    4    -529.3595794070      9.23e-03  
    5    -529.4053663965      1.37e-03  
    6    -529.4067641969      2.10e-04  
    7    -529.4067934240      7.35e-05  
    8    -529.4067964389      3.81e-05  
    9    -529.4067972312      2.00e-05  
   10    -529.4067975089      1.59e-06  
   11    -529.4067975122      6.58e-07  
   12    -529.4067975128      1.58e-07  
   13    -529.4067975128      9.63e-08  
   14    -529.4067975128      1.75e-08  
   15    -529.4067975128      2.12e-09  Convergence criterion met
 ---------------------------------------
 SCF time:   CPU 6.10s  wall 1.00s 
 SCF   energy in the final basis set =     -529.4067975128
 Total energy in the final basis set =     -529.4067975128
 
 --------------------------------------------------------------
 
                    Orbital Energies (a.u.)
 --------------------------------------------------------------
 
 Alpha MOs
 -- Occupied --
-88.882 -14.349 -10.227 -10.146  -7.951  -5.911  -5.911  -5.910
 -0.971  -0.802  -0.606  -0.496  -0.395  -0.395  -0.372  -0.322
 -0.322  -0.131
 -- Virtual --
 -0.055  -0.055   0.007   0.115   0.115   0.121   0.274   0.339
  0.358   0.358   0.477   0.536   0.536   0.567   0.649   0.649
  0.747   0.747   0.757   0.757   0.783   0.871   0.871   0.896
  0.954   1.206   1.280   1.365   1.483   1.483   1.580   1.581
  1.629   1.716   1.716   1.934   1.934   2.055   2.055   2.147
  2.147   2.321   2.531   2.899   2.899   3.064   3.820   3.929
  4.048   4.308   4.823
 --------------------------------------------------------------
 
          Ground-State Mulliken Net Atomic Charges

     Atom                 Charge (a.u.)
  ----------------------------------------
      1 H                     0.285160
      2 N                    -0.236361
      3 C                     0.016236
      4 C                    -0.064482
      5 S                    -0.000552
  ----------------------------------------
  Sum of atomic charges =     0.000000

 -----------------------------------------------------------------
                    Cartesian Multipole Moments
 -----------------------------------------------------------------
    Charge (ESU x 10^10)
                 0.0000
    Dipole Moment (Debye)
         X      -2.7755      Y       0.0000      Z      -0.3526
       Tot       2.7979
    Quadrupole Moments (Debye-Ang)
        XX     -34.3020     XY       0.0000     YY     -29.2149
        XZ      -4.6905     YZ       0.0000     ZZ     -30.3271
    Octopole Moments (Debye-Ang^2)
       XXX    -341.8048    XXY       0.0000    XYY    -109.6496
       YYY      -0.0000    XXZ     -67.9755    XYZ       0.0000
       YYZ     -58.7586    XZZ    -117.7017    YZZ      -0.0000
       ZZZ    -178.9371
    Hexadecapole Moments (Debye-Ang^3)
      XXXX   -3177.0554   XXXY       0.0000   XXYY    -528.8503
      XYYY      -0.0000   YYYY     -31.3273   XXXZ    -735.8182
      XXYZ       0.0000   XYYZ    -236.7451   YYYZ      -0.0000
      XXZZ    -666.9233   XYZZ       0.0000   YYZZ    -131.0837
      XZZZ    -724.4178   YZZZ      -0.0000   ZZZZ    -760.9350
 -----------------------------------------------------------------
 Calculating analytic gradient of the SCF energy
 Gradient of SCF Energy
            1           2           3           4           5
    1  -0.0938918   0.7168499  -0.4862789  -0.0816963  -0.0549828
    2  -0.0000000   0.0000000  -0.0000000   0.0000000  -0.0000000
    3  -0.0128010   0.0994516  -0.0683812  -0.0067907  -0.0114788
 Max gradient component =       7.168E-01
 RMS gradient           =       2.286E-01
 Gradient time:  CPU 2.72 s  wall 0.34 s
 Geometry Optimization Parameters
   NAtoms,    NIC,     NZ,  NCons,   NDum,   NFix, NCnnct, MaxDiis
        5      19       0       0       0       0       0       0


** GEOMETRY OPTIMIZATION IN DELOCALIZED INTERNAL COORDINATES **
   Searching for a Minimum

   Optimization Cycle:   1

                       Coordinates (Angstroms)
     ATOM                X               Y               Z
      1  H        -0.0951212793    0.0000000000    1.4513425628
      2  N         1.0695577231    0.0000000000    1.6110434927
      3  C         2.0752354192    0.0000000000    1.7505818235
      4  C         4.1059530700    0.0000000000    2.0510819294
      5  S         5.6211158665    0.0000000000    2.2992228707
   Point Group: c1    Number of degrees of freedom:     9


   Energy is   -529.406797513


 Attempting to Generate Delocalized Internal Coordinates

  ***ERROR*** Angle     1    2    3   is near-linear
              But No atom available to define colinear bend
**WARNING** Problems with Internal Coordinates
  Switching to Cartesian Coordinates

 ** Taking Steepest Descent Step **
 Calculated Step too Large.  Step scaled by  0.338867
 Step Taken.  Stepsize is  0.300000

                             Maximum     Tolerance    Cnvgd?
         Gradient           0.716850      0.000300      NO
         Displacement       0.242917      0.001200      NO
         Energy change     *********      0.000001      NO

 ----------------------------------------------------------------
             Standard Nuclear Orientation (Angstroms)
    I     Atom           X                Y                Z
 ----------------------------------------------------------------
    1      H      -0.0782845415     0.0000000000     1.4536380409
    2      N       0.9410117710     0.0000000000     1.5932097654
    3      C       2.1624352454     0.0000000000     1.7628439743
    4      C       4.1206029040     0.0000000000     2.0522996494
    5      S       5.6309754207     0.0000000000     2.3012812492
 ----------------------------------------------------------------
 Nuclear Repulsion Energy =   101.9407538679 hartrees
 There are       18 alpha and       18 beta electrons
 Applying Cartesian multipole field
    Component          Value
    ---------          -----
     (2,0,0)        1.00000E-12
     (0,2,0)        2.00000E-10
     (0,0,2)       -3.00000E-11
 Nucleus-field energy     =    -0.0000000136 hartrees
 Requested basis set is 6-31G(d,p)
 There are 20 shells and 69 basis functions
 A cutoff of  1.0D-11 yielded    185 shell pairs
 There are      2313 function pairs
 Smallest overlap matrix eigenvalue = 2.18E-03
 Guess MOs from SCF MO coefficient file

 -----------------------------------------------------------------------
  General SCF calculation program by
  Eric Jon Sundstrom, Paul Horn, Yuezhi Mao, Dmitri Zuev, Alec White,
  David Stuck, Shaama M.S., Shane Yost, Joonho Lee, David Small,
  Daniel Levine, Susi Lehtola, Hugh Burton, Evgeny Epifanovsky
 -----------------------------------------------------------------------
 Exchange:     0.2000 Hartree-Fock + 0.0800 Slater + 0.7200 B88
 Correlation:  0.1900 VWN1RPA + 0.8100 LYP
 Using SG-1 standard quadrature grid
 using 8 threads for integral computing
 -------------------------------------------------------
 OpenMP Integral computing Module                
 Release: version 1.0, May 2013, Q-Chem Inc. Pittsburgh 
 -------------------------------------------------------
 -------------------------------------------------------
 OpenMP BLAS3 based DFT computing Module                
 Release: version 1.0, May 2013, Q-Chem Inc. Pittsburgh 
 -------------------------------------------------------
 A restricted SCF calculation will be
 performed using DIIS
 SCF converges when DIIS error is below 1.0e-08
 ---------------------------------------
  Cycle       Energy         DIIS error
 ---------------------------------------
    1    -529.4546202165      6.78e-03  
    2    -529.4807716457      3.64e-03  
    3    -529.4867332468      1.47e-03  
    4    -529.4863516205      1.63e-03  
    5    -529.4879087198      1.67e-04  
    6    -529.4879216988      1.00e-04  
    7    -529.4879282857      1.62e-05  
    8    -529.4879284337      3.40e-06  
    9    -529.4879284416      4.81e-07  
   10    -529.4879284417      1.50e-07  
   11    -529.4879284417      2.39e-08  
   12    -529.4879284417      3.63e-09  Convergence criterion met
 ---------------------------------------
 SCF time:   CPU 4.81s  wall 1.00s 
 SCF   energy in the final basis set =     -529.4879284417
 Total energy in the final basis set =     -529.4879284417
 
 --------------------------------------------------------------
 
                    Orbital Energies (a.u.)
 --------------------------------------------------------------
 
 Alpha MOs
 -- Occupied --
-88.894 -14.361 -10.236 -10.216  -7.964  -5.924  -5.924  -5.923
 -0.900  -0.815  -0.631  -0.512  -0.404  -0.344  -0.344  -0.330
 -0.330  -0.147
 -- Virtual --
 -0.072  -0.072   0.036   0.036   0.071   0.113   0.271   0.348
  0.348   0.378   0.473   0.521   0.556   0.556   0.648   0.648
  0.729   0.729   0.745   0.745   0.765   0.844   0.844   0.852
  0.925   1.126   1.202   1.293   1.428   1.428   1.548   1.548
  1.687   1.704   1.704   1.913   1.913   1.921   1.921   2.112
  2.112   2.141   2.580   2.788   2.834   2.834   3.620   3.915
  3.963   4.298   4.681
 --------------------------------------------------------------
 
          Ground-State Mulliken Net Atomic Charges

     Atom                 Charge (a.u.)
  ----------------------------------------
      1 H                     0.263169
      2 N                    -0.481154
      3 C                     0.242570
      4 C                    -0.047751
      5 S                     0.023166
  ----------------------------------------
  Sum of atomic charges =     0.000000

 -----------------------------------------------------------------
                    Cartesian Multipole Moments
 -----------------------------------------------------------------
    Charge (ESU x 10^10)
                 0.0000
    Dipole Moment (Debye)
         X      -1.3721      Y      -0.0000      Z      -0.1482
       Tot       1.3801
    Quadrupole Moments (Debye-Ang)
        XX     -28.1830     XY      -0.0000     YY     -29.6394
        XZ      -1.6766     YZ      -0.0000     ZZ     -30.0126
    Octopole Moments (Debye-Ang^2)
       XXX    -310.5640    XXY      -0.0000    XYY    -109.6391
       YYY      -0.0000    XXZ     -54.3963    XYZ      -0.0000
       YYZ     -59.3747    XZZ    -111.1928    YZZ      -0.0000
       ZZZ    -178.7535
    Hexadecapole Moments (Debye-Ang^3)
      XXXX   -3010.0779   XXXY       0.0000   XXYY    -528.2742
      XYYY      -0.0000   YYYY     -31.9664   XXXZ    -665.5479
      XXYZ       0.0000   XYYZ    -236.6167   YYYZ      -0.0000
      XXZZ    -636.0990   XYZZ       0.0000   YYZZ    -132.1751
      XZZZ    -709.9362   YZZZ      -0.0000   ZZZZ    -761.8054
 -----------------------------------------------------------------
 Calculating analytic gradient of the SCF energy
 Gradient of SCF Energy
            1           2           3           4           5
    1  -0.0133308  -0.0463568   0.2125950  -0.0962947  -0.0566126
    2  -0.0000000  -0.0000000   0.0000000  -0.0000000   0.0000000
    3  -0.0016989  -0.0065057   0.0287853  -0.0087238  -0.0118570
 Max gradient component =       2.126E-01
 RMS gradient           =       6.382E-02
 Gradient time:  CPU 2.57 s  wall 0.32 s
 Geometry Optimization Parameters
   NAtoms,    NIC,     NZ,  NCons,   NDum,   NFix, NCnnct, MaxDiis
        5      19       0       0       0       0       0       0

 Cartesian Hessian Update
 Hessian Updated using BFGS Update


** GEOMETRY OPTIMIZATION IN CARTESIAN COORDINATES **
   Searching for a Minimum

   Optimization Cycle:   2

                       Coordinates (Angstroms)
     ATOM                X               Y               Z
      1  H        -0.0782845415    0.0000000000    1.4536380409
      2  N         0.9410117710    0.0000000000    1.5932097654
      3  C         2.1624352454    0.0000000000    1.7628439743
      4  C         4.1206029040    0.0000000000    2.0522996494
      5  S         5.6309754207    0.0000000000    2.3012812492
   Point Group: c1    Number of degrees of freedom:     9


   Energy is   -529.487928442


 Translations and Rotations Projected Out of Hessian

  2 Hessian modes will be used to form the next step
  Hessian Eigenvalues:
     0.949610    3.610277

 Minimum Search - Taking Simple RFO Step
 Searching for Lamda that Minimizes Along All modes
 Value Taken    Lamda =  -0.03503157
 Step Taken.  Stepsize is  0.167829

                             Maximum     Tolerance    Cnvgd?
         Gradient           0.212595      0.000300      NO
         Displacement       0.116288      0.001200      NO
         Energy change     -0.081131      0.000001      NO

 ----------------------------------------------------------------
             Standard Nuclear Orientation (Angstroms)
    I     Atom           X                Y                Z
 ----------------------------------------------------------------
    1      H      -0.0662273167     0.0000000000     1.4552349370
    2      N       0.9141650212     0.0000000000     1.5895211793
    3      C       2.1008984647     0.0000000000     1.7546800550
    4      C       4.1683809945     0.0000000000     2.0565847492
    5      S       5.6595236359     0.0000000000     2.3072517586
 ----------------------------------------------------------------
 Nuclear Repulsion Energy =   101.8798985719 hartrees
 There are       18 alpha and       18 beta electrons
 Applying Cartesian multipole field
    Component          Value
    ---------          -----
     (2,0,0)        1.00000E-12
     (0,2,0)        2.00000E-10
     (0,0,2)       -3.00000E-11
 Nucleus-field energy     =    -0.0000000136 hartrees
 Requested basis set is 6-31G(d,p)
 There are 20 shells and 69 basis functions
 A cutoff of  1.0D-11 yielded    181 shell pairs
 There are      2276 function pairs
 Smallest overlap matrix eigenvalue = 2.18E-03
 Guess MOs from SCF MO coefficient file

 -----------------------------------------------------------------------
  General SCF calculation program by
  Eric Jon Sundstrom, Paul Horn, Yuezhi Mao, Dmitri Zuev, Alec White,
  David Stuck, Shaama M.S., Shane Yost, Joonho Lee, David Small,
  Daniel Levine, Susi Lehtola, Hugh Burton, Evgeny Epifanovsky
 -----------------------------------------------------------------------
 Exchange:     0.2000 Hartree-Fock + 0.0800 Slater + 0.7200 B88
 Correlation:  0.1900 VWN1RPA + 0.8100 LYP
 Using SG-1 standard quadrature grid
 using 8 threads for integral computing
 -------------------------------------------------------
 OpenMP Integral computing Module                
 Release: version 1.0, May 2013, Q-Chem Inc. Pittsburgh 
 -------------------------------------------------------
 -------------------------------------------------------
 OpenMP BLAS3 based DFT computing Module                
 Release: version 1.0, May 2013, Q-Chem Inc. Pittsburgh 
 -------------------------------------------------------
 A restricted SCF calculation will be
 performed using DIIS
 SCF converges when DIIS error is below 1.0e-08
 ---------------------------------------
  Cycle       Energy         DIIS error
 ---------------------------------------
    1    -529.5140593975      1.69e-03  
    2    -529.5163158076      1.28e-03  
    3    -529.5164918336      1.10e-03  
    4    -529.5170771855      3.18e-04  
    5    -529.5171255206      1.48e-04  
    6    -529.5171408048      1.79e-05  
    7    -529.5171410037      3.49e-06  
    8    -529.5171410116      8.74e-07  
    9    -529.5171410121      1.04e-07  
   10    -529.5171410121      2.57e-08  
   11    -529.5171410121      7.45e-09  Convergence criterion met
 ---------------------------------------
 SCF time:   CPU 4.36s  wall 1.00s 
 SCF   energy in the final basis set =     -529.5171410121
 Total energy in the final basis set =     -529.5171410121
 
 --------------------------------------------------------------
 
                    Orbital Energies (a.u.)
 --------------------------------------------------------------
 
 Alpha MOs
 -- Occupied --
-88.892 -14.355 -10.231 -10.206  -7.962  -5.922  -5.922  -5.922
 -0.915  -0.819  -0.645  -0.503  -0.385  -0.349  -0.349  -0.333
 -0.333  -0.162
 -- Virtual --
 -0.063  -0.063   0.044   0.044   0.084   0.114   0.274   0.348
  0.348   0.385   0.478   0.535   0.552   0.552   0.650   0.650
  0.734   0.734   0.744   0.745   0.745   0.840   0.840   0.883
  0.926   1.160   1.231   1.289   1.443   1.443   1.537   1.537
  1.686   1.710   1.710   1.937   1.937   1.940   1.940   2.132
  2.132   2.229   2.598   2.829   2.908   2.908   3.670   3.919
  4.021   4.233   4.878
 --------------------------------------------------------------
 
          Ground-State Mulliken Net Atomic Charges

     Atom                 Charge (a.u.)
  ----------------------------------------
      1 H                     0.265108
      2 N                    -0.442604
      3 C                     0.208981
      4 C                    -0.051967
      5 S                     0.020482
  ----------------------------------------
  Sum of atomic charges =     0.000000

 -----------------------------------------------------------------
                    Cartesian Multipole Moments
 -----------------------------------------------------------------
    Charge (ESU x 10^10)
                 0.0000
    Dipole Moment (Debye)
         X      -1.4738      Y      -0.0000      Z      -0.1613
       Tot       1.4826
    Quadrupole Moments (Debye-Ang)
        XX     -27.5199     XY      -0.0000     YY     -29.4520
        XZ      -1.7373     YZ      -0.0000     ZZ     -29.8479
    Octopole Moments (Debye-Ang^2)
       XXX    -302.6068    XXY      -0.0000    XYY    -109.4533
       YYY      -0.0000    XXZ     -52.1914    XYZ      -0.0000
       YYZ     -59.0872    XZZ    -110.7676    YZZ      -0.0000
       ZZZ    -177.8746
    Hexadecapole Moments (Debye-Ang^3)
      XXXX   -2965.5781   XXXY      -0.0000   XXYY    -531.2182
      XYYY      -0.0000   YYYY     -31.6341   XXXZ    -645.3565
      XXYZ      -0.0000   XYYZ    -236.8705   YYYZ       0.0000
      XXZZ    -632.4700   XYZZ      -0.0000   YYZZ    -131.7136
      XZZZ    -709.3147   YZZZ      -0.0000   ZZZZ    -759.1025
 -----------------------------------------------------------------
 Calculating analytic gradient of the SCF energy
 Gradient of SCF Energy
            1           2           3           4           5
    1   0.0151201  -0.0292396   0.1371211  -0.0520547  -0.0709468
    2   0.0000000  -0.0000000   0.0000000   0.0000000  -0.0000000
    3   0.0022086  -0.0039942   0.0180864  -0.0022410  -0.0140598
 Max gradient component =       1.371E-01
 RMS gradient           =       4.334E-02
 Gradient time:  CPU 2.55 s  wall 0.32 s
 Geometry Optimization Parameters
   NAtoms,    NIC,     NZ,  NCons,   NDum,   NFix, NCnnct, MaxDiis
        5      19       0       0       0       0       0       0

 Cartesian Hessian Update
 Hessian Updated using BFGS Update


** GEOMETRY OPTIMIZATION IN CARTESIAN COORDINATES **
   Searching for a Minimum

   Optimization Cycle:   3

                       Coordinates (Angstroms)
     ATOM                X               Y               Z
      1  H        -0.0662273167    0.0000000000    1.4552349370
      2  N         0.9141650212    0.0000000000    1.5895211793
      3  C         2.1008984647    0.0000000000    1.7546800550
      4  C         4.1683809945    0.0000000000    2.0565847492
      5  S         5.6595236359    0.0000000000    2.3072517586
   Point Group: c1    Number of degrees of freedom:     9


   Energy is   -529.517141012


 Translations and Rotations Projected Out of Hessian

  4 Hessian modes will be used to form the next step
  Hessian Eigenvalues:
     0.324844    1.000000    1.209623    3.066301

 Minimum Search - Taking Simple RFO Step
 Searching for Lamda that Minimizes Along All modes
 Value Taken    Lamda =  -0.05270635
 Calculated Step too Large.  Step scaled by  0.824622
 Step Taken.  Stepsize is  0.300000

                             Maximum     Tolerance    Cnvgd?
         Gradient           0.137121      0.000300      NO
         Displacement       0.194534      0.001200      NO
         Energy change     -0.029213      0.000001      NO

 ----------------------------------------------------------------
             Standard Nuclear Orientation (Angstroms)
    I     Atom           X                Y                Z
 ----------------------------------------------------------------
    1      H      -0.0724619645     0.0000000000     1.4542305875
    2      N       0.8691954246     0.0000000000     1.5832216209
    3      C       1.9979553380     0.0000000000     1.7415517776
    4      C       4.2368404670     0.0000000000     2.0599727082
    5      S       5.7452115344     0.0000000000     2.3242959848
 ----------------------------------------------------------------
 Nuclear Repulsion Energy =   100.6298940556 hartrees
 There are       18 alpha and       18 beta electrons
 Applying Cartesian multipole field
    Component          Value
    ---------          -----
     (2,0,0)        1.00000E-12
     (0,2,0)        2.00000E-10
     (0,0,2)       -3.00000E-11
 Nucleus-field energy     =    -0.0000000137 hartrees
 Requested basis set is 6-31G(d,p)
 There are 20 shells and 69 basis functions
 A cutoff of  1.0D-11 yielded    178 shell pairs
 There are      2262 function pairs
 Smallest overlap matrix eigenvalue = 2.12E-03
 Guess MOs from SCF MO coefficient file

 -----------------------------------------------------------------------
  General SCF calculation program by
  Eric Jon Sundstrom, Paul Horn, Yuezhi Mao, Dmitri Zuev, Alec White,
  David Stuck, Shaama M.S., Shane Yost, Joonho Lee, David Small,
  Daniel Levine, Susi Lehtola, Hugh Burton, Evgeny Epifanovsky
 -----------------------------------------------------------------------
 Exchange:     0.2000 Hartree-Fock + 0.0800 Slater + 0.7200 B88
 Correlation:  0.1900 VWN1RPA + 0.8100 LYP
 Using SG-1 standard quadrature grid
 using 8 threads for integral computing
 -------------------------------------------------------
 OpenMP Integral computing Module                
 Release: version 1.0, May 2013, Q-Chem Inc. Pittsburgh 
 -------------------------------------------------------
 -------------------------------------------------------
 OpenMP BLAS3 based DFT computing Module                
 Release: version 1.0, May 2013, Q-Chem Inc. Pittsburgh 
 -------------------------------------------------------
 A restricted SCF calculation will be
 performed using DIIS
 SCF converges when DIIS error is below 1.0e-08
 ---------------------------------------
  Cycle       Energy         DIIS error
 ---------------------------------------
    1    -529.5406339647      2.31e-03  
    2    -529.5442127071      1.50e-03  
    3    -529.5445308092      1.21e-03  
    4    -529.5451311564      5.26e-04  
    5    -529.5452852794      1.93e-04  
    6    -529.5453105754      1.61e-05  
    7    -529.5453107558      2.51e-06  
    8    -529.5453107595      5.96e-07  
    9    -529.5453107598      1.20e-07  
   10    -529.5453107598      2.79e-08  
   11    -529.5453107598      1.12e-08  
   12    -529.5453107598      1.60e-09  Convergence criterion met
 ---------------------------------------
 SCF time:   CPU 4.72s  wall 1.00s 
 SCF   energy in the final basis set =     -529.5453107598
 Total energy in the final basis set =     -529.5453107598
 
 --------------------------------------------------------------
 
                    Orbital Energies (a.u.)
 --------------------------------------------------------------
 
 Alpha MOs
 -- Occupied --
-88.893 -14.351 -10.240 -10.193  -7.962  -5.922  -5.922  -5.922
 -0.942  -0.813  -0.666  -0.499  -0.366  -0.366  -0.360  -0.331
 -0.331  -0.188
 -- Virtual --
 -0.059  -0.059   0.058   0.058   0.094   0.113   0.276   0.350
  0.351   0.379   0.468   0.543   0.543   0.565   0.641   0.641
  0.698   0.736   0.736   0.747   0.747   0.833   0.833   0.908
  0.935   1.170   1.221   1.318   1.468   1.468   1.515   1.515
  1.668   1.710   1.710   1.927   1.927   1.970   1.970   2.174
  2.174   2.355   2.540   2.951   3.006   3.006   3.728   3.915
  4.069   4.171   5.247
 --------------------------------------------------------------
 
          Ground-State Mulliken Net Atomic Charges

     Atom                 Charge (a.u.)
  ----------------------------------------
      1 H                     0.260393
      2 N                    -0.355805
      3 C                     0.131565
      4 C                    -0.054861
      5 S                     0.018708
  ----------------------------------------
  Sum of atomic charges =     0.000000

 -----------------------------------------------------------------
                    Cartesian Multipole Moments
 -----------------------------------------------------------------
    Charge (ESU x 10^10)
                -0.0000
    Dipole Moment (Debye)
         X      -1.8365      Y       0.0000      Z      -0.2123
       Tot       1.8488
    Quadrupole Moments (Debye-Ang)
        XX     -28.6425     XY       0.0000     YY     -29.3095
        XZ      -2.4332     YZ       0.0000     ZZ     -29.8772
    Octopole Moments (Debye-Ang^2)
       XXX    -308.2081    XXY       0.0000    XYY    -110.4162
       YYY       0.0000    XXZ     -54.2743    XYZ       0.0000
       YYZ     -59.0546    XZZ    -113.0154    YZZ       0.0000
       ZZZ    -178.2059
    Hexadecapole Moments (Debye-Ang^3)
      XXXX   -3049.6699   XXXY       0.0000   XXYY    -546.3425
      XYYY       0.0000   YYYY     -31.4746   XXXZ    -658.9879
      XXYZ       0.0000   XYYZ    -240.7186   YYYZ       0.0000
      XXZZ    -651.2968   XYZZ       0.0000   YYZZ    -132.2625
      XZZZ    -723.0975   YZZZ       0.0000   ZZZZ    -763.4873
 -----------------------------------------------------------------
 Calculating analytic gradient of the SCF energy
 Gradient of SCF Energy
            1           2           3           4           5
    1   0.0546042   0.0503769  -0.0236954  -0.0405129  -0.0407728
    2  -0.0000000   0.0000000  -0.0000000  -0.0000000   0.0000000
    3   0.0076532   0.0074015  -0.0049102  -0.0012095  -0.0089350
 Max gradient component =       5.460E-02
 RMS gradient           =       2.530E-02
 Gradient time:  CPU 2.52 s  wall 0.32 s
 Geometry Optimization Parameters
   NAtoms,    NIC,     NZ,  NCons,   NDum,   NFix, NCnnct, MaxDiis
        5      19       0       0       0       0       0       0

 Cartesian Hessian Update
 Hessian Updated using BFGS Update


** GEOMETRY OPTIMIZATION IN CARTESIAN COORDINATES **
   Searching for a Minimum

   Optimization Cycle:   4

                       Coordinates (Angstroms)
     ATOM                X               Y               Z
      1  H        -0.0724619645    0.0000000000    1.4542305875
      2  N         0.8691954246    0.0000000000    1.5832216209
      3  C         1.9979553380    0.0000000000    1.7415517776
      4  C         4.2368404670    0.0000000000    2.0599727082
      5  S         5.7452115344    0.0000000000    2.3242959848
   Point Group: c1    Number of degrees of freedom:     9


   Energy is   -529.545310760


 Translations and Rotations Projected Out of Hessian

  6 Hessian modes will be used to form the next step
  Hessian Eigenvalues:
     0.246948    1.000000    1.000000    1.073750    1.227047    3.694992

 Minimum Search - Taking Simple RFO Step
 Searching for Lamda that Minimizes Along All modes
 Value Taken    Lamda =  -0.01612573
 Step Taken.  Stepsize is  0.228188

                             Maximum     Tolerance    Cnvgd?
         Gradient           0.054604      0.000300      NO
         Displacement       0.123464      0.001200      NO
         Energy change     -0.028170      0.000001      NO

 ----------------------------------------------------------------
             Standard Nuclear Orientation (Angstroms)
    I     Atom           X                Y                Z
 ----------------------------------------------------------------
    1      H      -0.1117485859     0.0000000000     1.4486735481
    2      N       0.8279331170     0.0000000000     1.5772046293
    3      C       1.9478622905     0.0000000000     1.7362413755
    4      C       4.3021481694     0.0000000000     2.0632066412
    5      S       5.8105458085     0.0000000000     2.3379464851
 ----------------------------------------------------------------
 Nuclear Repulsion Energy =    99.4447587281 hartrees
 There are       18 alpha and       18 beta electrons
 Applying Cartesian multipole field
    Component          Value
    ---------          -----
     (2,0,0)        1.00000E-12
     (0,2,0)        2.00000E-10
     (0,0,2)       -3.00000E-11
 Nucleus-field energy     =    -0.0000000137 hartrees
 Requested basis set is 6-31G(d,p)
 There are 20 shells and 69 basis functions
 A cutoff of  1.0D-11 yielded    176 shell pairs
 There are      2244 function pairs
 Smallest overlap matrix eigenvalue = 2.27E-03
 Guess MOs from SCF MO coefficient file

 -----------------------------------------------------------------------
  General SCF calculation program by
  Eric Jon Sundstrom, Paul Horn, Yuezhi Mao, Dmitri Zuev, Alec White,
  David Stuck, Shaama M.S., Shane Yost, Joonho Lee, David Small,
  Daniel Levine, Susi Lehtola, Hugh Burton, Evgeny Epifanovsky
 -----------------------------------------------------------------------
 Exchange:     0.2000 Hartree-Fock + 0.0800 Slater + 0.7200 B88
 Correlation:  0.1900 VWN1RPA + 0.8100 LYP
 Using SG-1 standard quadrature grid
 using 8 threads for integral computing
 -------------------------------------------------------
 OpenMP Integral computing Module                
 Release: version 1.0, May 2013, Q-Chem Inc. Pittsburgh 
 -------------------------------------------------------
 -------------------------------------------------------
 OpenMP BLAS3 based DFT computing Module                
 Release: version 1.0, May 2013, Q-Chem Inc. Pittsburgh 
 -------------------------------------------------------
 A restricted SCF calculation will be
 performed using DIIS
 SCF converges when DIIS error is below 1.0e-08
 ---------------------------------------
  Cycle       Energy         DIIS error
 ---------------------------------------
    1    -529.5583368322      6.98e-04  
    2    -529.5588000629      2.30e-04  
    3    -529.5587606644      3.24e-04  
    4    -529.5588219796      1.32e-04  
    5    -529.5588335207      2.40e-05  
    6    -529.5588338060      5.54e-06  
    7    -529.5588338260      7.84e-07  
    8    -529.5588338265      1.42e-07  
    9    -529.5588338266      5.08e-08  
   10    -529.5588338266      7.82e-09  Convergence criterion met
 ---------------------------------------
 SCF time:   CPU 3.91s  wall 0.00s 
 SCF   energy in the final basis set =     -529.5588338266
 Total energy in the final basis set =     -529.5588338266
 
 --------------------------------------------------------------
 
                    Orbital Energies (a.u.)
 --------------------------------------------------------------
 
 Alpha MOs
 -- Occupied --
-88.895 -14.351 -10.245 -10.193  -7.964  -5.924  -5.924  -5.924
 -0.946  -0.815  -0.669  -0.499  -0.369  -0.369  -0.348  -0.332
 -0.332  -0.204
 -- Virtual --
 -0.059  -0.059   0.059   0.059   0.094   0.111   0.276   0.350
  0.350   0.382   0.464   0.540   0.540   0.566   0.637   0.637
  0.665   0.737   0.737   0.746   0.746   0.824   0.825   0.911
  0.936   1.143   1.215   1.325   1.470   1.470   1.512   1.512
  1.654   1.708   1.708   1.924   1.925   1.974   1.974   2.181
  2.181   2.403   2.486   2.969   3.017   3.017   3.720   3.912
  4.074   4.149   5.293
 --------------------------------------------------------------
 
          Ground-State Mulliken Net Atomic Charges

     Atom                 Charge (a.u.)
  ----------------------------------------
      1 H                     0.262806
      2 N                    -0.333348
      3 C                     0.101473
      4 C                    -0.055366
      5 S                     0.024435
  ----------------------------------------
  Sum of atomic charges =     0.000000

 -----------------------------------------------------------------
                    Cartesian Multipole Moments
 -----------------------------------------------------------------
    Charge (ESU x 10^10)
                -0.0000
    Dipole Moment (Debye)
         X      -1.8309      Y       0.0000      Z      -0.2061
       Tot       1.8424
    Quadrupole Moments (Debye-Ang)
        XX     -27.7638     XY       0.0000     YY     -29.2784
        XZ      -2.2727     YZ       0.0000     ZZ     -29.8033
    Octopole Moments (Debye-Ang^2)
       XXX    -302.8478    XXY       0.0000    XYY    -111.0456
       YYY       0.0000    XXZ     -51.8815    XYZ      -0.0000
       YYZ     -59.1283    XZZ    -112.9898    YZZ      -0.0000
       ZZZ    -178.2478
    Hexadecapole Moments (Debye-Ang^3)
      XXXX   -3059.7469   XXXY       0.0000   XXYY    -557.1640
      XYYY       0.0000   YYYY     -31.4145   XXXZ    -647.3848
      XXYZ      -0.0000   XYYZ    -243.4048   YYYZ       0.0000
      XXZZ    -655.8347   XYZZ      -0.0000   YYZZ    -132.8136
      XZZZ    -729.0658   YZZZ      -0.0000   ZZZZ    -766.2424
 -----------------------------------------------------------------
 Calculating analytic gradient of the SCF energy
 Gradient of SCF Energy
            1           2           3           4           5
    1   0.0561876   0.0691675  -0.0651419  -0.0262146  -0.0339985
    2  -0.0000000  -0.0000000   0.0000000  -0.0000000   0.0000000
    3   0.0079027   0.0102489  -0.0110438   0.0006900  -0.0077977
 Max gradient component =       6.917E-02
 RMS gradient           =       3.096E-02
 Gradient time:  CPU 2.51 s  wall 0.32 s
 Geometry Optimization Parameters
   NAtoms,    NIC,     NZ,  NCons,   NDum,   NFix, NCnnct, MaxDiis
        5      19       0       0       0       0       0       0

 Cartesian Hessian Update
 Hessian Updated using BFGS Update


** GEOMETRY OPTIMIZATION IN CARTESIAN COORDINATES **
   Searching for a Minimum

   Optimization Cycle:   5

                       Coordinates (Angstroms)
     ATOM                X               Y               Z
      1  H        -0.1117485859    0.0000000000    1.4486735481
      2  N         0.8279331170    0.0000000000    1.5772046293
      3  C         1.9478622905    0.0000000000    1.7362413755
      4  C         4.3021481694    0.0000000000    2.0632066412
      5  S         5.8105458085    0.0000000000    2.3379464851
   Point Group: c1    Number of degrees of freedom:     9


   Energy is   -529.558833827


 Translations and Rotations Projected Out of Hessian

  7 Hessian modes will be used to form the next step
  Hessian Eigenvalues:
     0.085050    1.000000    1.000000    1.000031    1.012984    1.194015
     3.829569

 Minimum Search - Taking Simple RFO Step
 Searching for Lamda that Minimizes Along All modes
 Value Taken    Lamda =  -0.03079662
 Calculated Step too Large.  Step scaled by  0.623188
 Step Taken.  Stepsize is  0.300000

                             Maximum     Tolerance    Cnvgd?
         Gradient           0.069167      0.000300      NO
         Displacement       0.163689      0.001200      NO
         Energy change     -0.013523      0.000001      NO

 ----------------------------------------------------------------
             Standard Nuclear Orientation (Angstroms)
    I     Atom           X                Y                Z
 ----------------------------------------------------------------
    1      H      -0.1793986726     0.0000000000     1.4391343840
    2      N       0.7707814282     0.0000000000     1.5686165274
    3      C       1.9013876557     0.0000000000     1.7326209495
    4      C       4.3868041666     0.0000000000     2.0664728623
    5      S       5.8971662215     0.0000000000     2.3564279559
 ----------------------------------------------------------------
 Nuclear Repulsion Energy =    97.6007673230 hartrees
 There are       18 alpha and       18 beta electrons
 Applying Cartesian multipole field
    Component          Value
    ---------          -----
     (2,0,0)        1.00000E-12
     (0,2,0)        2.00000E-10
     (0,0,2)       -3.00000E-11
 Nucleus-field energy     =    -0.0000000138 hartrees
 Requested basis set is 6-31G(d,p)
 There are 20 shells and 69 basis functions
 A cutoff of  1.0D-11 yielded    175 shell pairs
 There are      2228 function pairs
 Smallest overlap matrix eigenvalue = 2.61E-03
 Guess MOs from SCF MO coefficient file

 -----------------------------------------------------------------------
  General SCF calculation program by
  Eric Jon Sundstrom, Paul Horn, Yuezhi Mao, Dmitri Zuev, Alec White,
  David Stuck, Shaama M.S., Shane Yost, Joonho Lee, David Small,
  Daniel Levine, Susi Lehtola, Hugh Burton, Evgeny Epifanovsky
 -----------------------------------------------------------------------
 Exchange:     0.2000 Hartree-Fock + 0.0800 Slater + 0.7200 B88
 Correlation:  0.1900 VWN1RPA + 0.8100 LYP
 Using SG-1 standard quadrature grid
 using 8 threads for integral computing
 -------------------------------------------------------
 OpenMP Integral computing Module                
 Release: version 1.0, May 2013, Q-Chem Inc. Pittsburgh 
 -------------------------------------------------------
 -------------------------------------------------------
 OpenMP BLAS3 based DFT computing Module                
 Release: version 1.0, May 2013, Q-Chem Inc. Pittsburgh 
 -------------------------------------------------------
 A restricted SCF calculation will be
 performed using DIIS
 SCF converges when DIIS error is below 1.0e-08
 ---------------------------------------
  Cycle       Energy         DIIS error
 ---------------------------------------
    1    -529.5746076046      7.29e-04  
    2    -529.5749856239      3.70e-04  
    3    -529.5748991437      5.30e-04  
    4    -529.5750533253      1.09e-04  
    5    -529.5750599034      4.86e-05  
    6    -529.5750614662      5.53e-06  
    7    -529.5750614884      6.95e-07  
    8    -529.5750614889      1.45e-07  
    9    -529.5750614889      4.33e-08  
   10    -529.5750614889      8.49e-09  Convergence criterion met
 ---------------------------------------
 SCF time:   CPU 3.87s  wall 0.00s 
 SCF   energy in the final basis set =     -529.5750614889
 Total energy in the final basis set =     -529.5750614889
 
 --------------------------------------------------------------
 
                    Orbital Energies (a.u.)
 --------------------------------------------------------------
 
 Alpha MOs
 -- Occupied --
-88.899 -14.354 -10.251 -10.201  -7.967  -5.927  -5.927  -5.927
 -0.942  -0.816  -0.665  -0.500  -0.366  -0.366  -0.339  -0.333
 -0.333  -0.222
 -- Virtual --
 -0.061  -0.061   0.054   0.054   0.090   0.108   0.275   0.349
  0.349   0.388   0.460   0.538   0.538   0.550   0.632   0.633
  0.634   0.737   0.737   0.744   0.744   0.812   0.812   0.910
  0.931   1.099   1.202   1.301   1.461   1.461   1.515   1.515
  1.633   1.706   1.706   1.917   1.919   1.967   1.967   2.170
  2.170   2.400   2.439   2.935   2.992   2.992   3.679   3.907
  4.070   4.120   5.188
 --------------------------------------------------------------
 
          Ground-State Mulliken Net Atomic Charges

     Atom                 Charge (a.u.)
  ----------------------------------------
      1 H                     0.270865
      2 N                    -0.338204
      3 C                     0.090277
      4 C                    -0.055759
      5 S                     0.032821
  ----------------------------------------
  Sum of atomic charges =    -0.000000

 -----------------------------------------------------------------
                    Cartesian Multipole Moments
 -----------------------------------------------------------------
    Charge (ESU x 10^10)
                -0.0000
    Dipole Moment (Debye)
         X      -1.7656      Y       0.0000      Z      -0.1879
       Tot       1.7756
    Quadrupole Moments (Debye-Ang)
        XX     -26.5097     XY       0.0000     YY     -29.3249
        XZ      -1.9460     YZ       0.0000     ZZ     -29.7591
    Octopole Moments (Debye-Ang^2)
       XXX    -296.5467    XXY       0.0000    XYY    -112.0300
       YYY       0.0000    XXZ     -48.6310    XYZ       0.0000
       YYZ     -59.3772    XZZ    -112.8975    YZZ       0.0000
       ZZZ    -178.6724
    Hexadecapole Moments (Debye-Ang^3)
      XXXX   -3082.7170   XXXY       0.0000   XXYY    -572.2644
      XYYY       0.0000   YYYY     -31.4772   XXXZ    -634.1315
      XXYZ       0.0000   XYYZ    -247.3023   YYYZ       0.0000
      XXZZ    -662.6500   XYZZ       0.0000   YYZZ    -133.8671
      XZZZ    -737.6282   YZZZ       0.0000   ZZZZ    -771.5053
 -----------------------------------------------------------------
 Calculating analytic gradient of the SCF energy
 Gradient of SCF Energy
            1           2           3           4           5
    1   0.0427127   0.0490094  -0.0498481  -0.0173924  -0.0244816
    2  -0.0000000   0.0000000  -0.0000000  -0.0000000   0.0000000
    3   0.0060999   0.0075183  -0.0090744   0.0015455  -0.0060892
 Max gradient component =       4.985E-02
 RMS gradient           =       2.285E-02
 Gradient time:  CPU 2.47 s  wall 0.31 s
 Geometry Optimization Parameters
   NAtoms,    NIC,     NZ,  NCons,   NDum,   NFix, NCnnct, MaxDiis
        5      19       0       0       0       0       0       0

 Cartesian Hessian Update
 Hessian Updated using BFGS Update


** GEOMETRY OPTIMIZATION IN CARTESIAN COORDINATES **
   Searching for a Minimum

   Optimization Cycle:   6

                       Coordinates (Angstroms)
     ATOM                X               Y               Z
      1  H        -0.1793986726    0.0000000000    1.4391343840
      2  N         0.7707814282    0.0000000000    1.5686165274
      3  C         1.9013876557    0.0000000000    1.7326209495
      4  C         4.3868041666    0.0000000000    2.0664728623
      5  S         5.8971662215    0.0000000000    2.3564279559
   Point Group: c1    Number of degrees of freedom:     9


   Energy is   -529.575061489


 Translations and Rotations Projected Out of Hessian

  7 Hessian modes will be used to form the next step
  Hessian Eigenvalues:
     0.060053    0.965864    1.000000    1.000001    1.000353    1.171868
     3.565041

 Minimum Search - Taking Simple RFO Step
 Searching for Lamda that Minimizes Along All modes
 Value Taken    Lamda =  -0.02405663
 Calculated Step too Large.  Step scaled by  0.592353
 Step Taken.  Stepsize is  0.300000

                             Maximum     Tolerance    Cnvgd?
         Gradient           0.049848      0.000300      NO
         Displacement       0.163391      0.001200      NO
         Energy change     -0.016228      0.000001      NO

 ----------------------------------------------------------------
             Standard Nuclear Orientation (Angstroms)
    I     Atom           X                Y                Z
 ----------------------------------------------------------------
    1      H      -0.2516450181     0.0000000000     1.4288988445
    2      N       0.7146087162     0.0000000000     1.5599450658
    3      C       1.8594190789     0.0000000000     1.7302988924
    4      C       4.4707288339     0.0000000000     2.0688286384
    5      S       5.9836291886     0.0000000000     2.3753012380
 ----------------------------------------------------------------
 Nuclear Repulsion Energy =    95.7934934539 hartrees
 There are       18 alpha and       18 beta electrons
 Applying Cartesian multipole field
    Component          Value
    ---------          -----
     (2,0,0)        1.00000E-12
     (0,2,0)        2.00000E-10
     (0,0,2)       -3.00000E-11
 Nucleus-field energy     =    -0.0000000138 hartrees
 Requested basis set is 6-31G(d,p)
 There are 20 shells and 69 basis functions
 A cutoff of  1.0D-11 yielded    171 shell pairs
 There are      2180 function pairs
 Smallest overlap matrix eigenvalue = 3.01E-03
 Guess MOs from SCF MO coefficient file

 -----------------------------------------------------------------------
  General SCF calculation program by
  Eric Jon Sundstrom, Paul Horn, Yuezhi Mao, Dmitri Zuev, Alec White,
  David Stuck, Shaama M.S., Shane Yost, Joonho Lee, David Small,
  Daniel Levine, Susi Lehtola, Hugh Burton, Evgeny Epifanovsky
 -----------------------------------------------------------------------
 Exchange:     0.2000 Hartree-Fock + 0.0800 Slater + 0.7200 B88
 Correlation:  0.1900 VWN1RPA + 0.8100 LYP
 Using SG-1 standard quadrature grid
 using 8 threads for integral computing
 -------------------------------------------------------
 OpenMP Integral computing Module                
 Release: version 1.0, May 2013, Q-Chem Inc. Pittsburgh 
 -------------------------------------------------------
 -------------------------------------------------------
 OpenMP BLAS3 based DFT computing Module                
 Release: version 1.0, May 2013, Q-Chem Inc. Pittsburgh 
 -------------------------------------------------------
 A restricted SCF calculation will be
 performed using DIIS
 SCF converges when DIIS error is below 1.0e-08
 ---------------------------------------
  Cycle       Energy         DIIS error
 ---------------------------------------
    1    -529.5863943105      7.47e-04  
    2    -529.5866961902      4.87e-04  
    3    -529.5866747911      5.14e-04  
    4    -529.5868083745      1.27e-04  
    5    -529.5868167366      6.50e-05  
    6    -529.5868196418      5.74e-06  
    7    -529.5868196662      8.35e-07  
    8    -529.5868196669      2.07e-07  
    9    -529.5868196669      5.16e-08  
   10    -529.5868196669      7.13e-09  Convergence criterion met
 ---------------------------------------
 SCF time:   CPU 4.04s  wall 0.00s 
 SCF   energy in the final basis set =     -529.5868196669
 Total energy in the final basis set =     -529.5868196669
 
 --------------------------------------------------------------
 
                    Orbital Energies (a.u.)
 --------------------------------------------------------------
 
 Alpha MOs
 -- Occupied --
-88.902 -14.358 -10.257 -10.209  -7.970  -5.930  -5.930  -5.930
 -0.937  -0.817  -0.659  -0.502  -0.363  -0.363  -0.335  -0.334
 -0.332  -0.237
 -- Virtual --
 -0.063  -0.063   0.047   0.047   0.084   0.106   0.275   0.348
  0.348   0.389   0.457   0.530   0.538   0.538   0.608   0.629
  0.629   0.736   0.737   0.743   0.743   0.800   0.800   0.908
  0.923   1.054   1.190   1.271   1.451   1.451   1.519   1.519
  1.609   1.703   1.703   1.911   1.913   1.958   1.958   2.154
  2.154   2.355   2.435   2.886   2.957   2.958   3.632   3.903
  4.057   4.101   5.052
 --------------------------------------------------------------
 
          Ground-State Mulliken Net Atomic Charges

     Atom                 Charge (a.u.)
  ----------------------------------------
      1 H                     0.280288
      2 N                    -0.349529
      3 C                     0.085552
      4 C                    -0.057020
      5 S                     0.040709
  ----------------------------------------
  Sum of atomic charges =    -0.000000

 -----------------------------------------------------------------
                    Cartesian Multipole Moments
 -----------------------------------------------------------------
    Charge (ESU x 10^10)
                -0.0000
    Dipole Moment (Debye)
         X      -1.7117      Y       0.0000      Z      -0.1695
       Tot       1.7200
    Quadrupole Moments (Debye-Ang)
        XX     -25.3897     XY       0.0000     YY     -29.3927
        XZ      -1.6467     YZ       0.0000     ZZ     -29.7369
    Octopole Moments (Debye-Ang^2)
       XXX    -291.4833    XXY       0.0000    XYY    -113.0638
       YYY       0.0000    XXZ     -45.7114    XYZ       0.0000
       YYZ     -59.6666    XZZ    -112.9242    YZZ       0.0000
       ZZZ    -179.2235
    Hexadecapole Moments (Debye-Ang^3)
      XXXX   -3115.4275   XXXY       0.0000   XXYY    -587.8893
      XYYY      -0.0000   YYYY     -31.5772   XXXZ    -623.6856
      XXYZ       0.0000   XYYZ    -251.3641   YYYZ       0.0000
      XXZZ    -670.7541   XYZZ       0.0000   YYZZ    -135.0248
      XZZZ    -746.8507   YZZZ       0.0000   ZZZZ    -777.3737
 -----------------------------------------------------------------
 Calculating analytic gradient of the SCF energy
 Gradient of SCF Energy
            1           2           3           4           5
    1   0.0240308   0.0279637  -0.0225400  -0.0141170  -0.0153375
    2   0.0000000   0.0000000  -0.0000000   0.0000000   0.0000000
    3   0.0035867   0.0043926  -0.0050736   0.0013801  -0.0042858
 Max gradient component =       2.796E-02
 RMS gradient           =       1.260E-02
 Gradient time:  CPU 2.48 s  wall 0.31 s
 Geometry Optimization Parameters
   NAtoms,    NIC,     NZ,  NCons,   NDum,   NFix, NCnnct, MaxDiis
        5      19       0       0       0       0       0       0

 Cartesian Hessian Update
 Hessian Updated using BFGS Update


** GEOMETRY OPTIMIZATION IN CARTESIAN COORDINATES **
   Searching for a Minimum

   Optimization Cycle:   7

                       Coordinates (Angstroms)
     ATOM                X               Y               Z
      1  H        -0.2516450181    0.0000000000    1.4288988445
      2  N         0.7146087162    0.0000000000    1.5599450658
      3  C         1.8594190789    0.0000000000    1.7302988924
      4  C         4.4707288339    0.0000000000    2.0688286384
      5  S         5.9836291886    0.0000000000    2.3753012380
   Point Group: c1    Number of degrees of freedom:     9


   Energy is   -529.586819667


 Translations and Rotations Projected Out of Hessian

  7 Hessian modes will be used to form the next step
  Hessian Eigenvalues:
     0.045887    0.962078    1.000000    1.000007    1.000992    1.178604
     3.543309

 Minimum Search - Taking Simple RFO Step
 Searching for Lamda that Minimizes Along All modes
 Value Taken    Lamda =  -0.01492666
 Calculated Step too Large.  Step scaled by  0.618691
 Step Taken.  Stepsize is  0.300000

                             Maximum     Tolerance    Cnvgd?
         Gradient           0.027964      0.000300      NO
         Displacement       0.162382      0.001200      NO
         Energy change     -0.011758      0.000001      NO

 ----------------------------------------------------------------
             Standard Nuclear Orientation (Angstroms)
    I     Atom           X                Y                Z
 ----------------------------------------------------------------
    1      H      -0.3208126907     0.0000000000     1.4189865858
    2      N       0.6579935405     0.0000000000     1.5511753783
    3      C       1.8142078573     0.0000000000     1.7279794512
    4      C       4.5557938486     0.0000000000     2.0707229767
    5      S       6.0695582439     0.0000000000     2.3944082871
 ----------------------------------------------------------------
 Nuclear Repulsion Energy =    94.1594904478 hartrees
 There are       18 alpha and       18 beta electrons
 Applying Cartesian multipole field
    Component          Value
    ---------          -----
     (2,0,0)        1.00000E-12
     (0,2,0)        2.00000E-10
     (0,0,2)       -3.00000E-11
 Nucleus-field energy     =    -0.0000000139 hartrees
 Requested basis set is 6-31G(d,p)
 There are 20 shells and 69 basis functions
 A cutoff of  1.0D-11 yielded    171 shell pairs
 There are      2180 function pairs
 Smallest overlap matrix eigenvalue = 3.43E-03
 Guess MOs from SCF MO coefficient file

 -----------------------------------------------------------------------
  General SCF calculation program by
  Eric Jon Sundstrom, Paul Horn, Yuezhi Mao, Dmitri Zuev, Alec White,
  David Stuck, Shaama M.S., Shane Yost, Joonho Lee, David Small,
  Daniel Levine, Susi Lehtola, Hugh Burton, Evgeny Epifanovsky
 -----------------------------------------------------------------------
 Exchange:     0.2000 Hartree-Fock + 0.0800 Slater + 0.7200 B88
 Correlation:  0.1900 VWN1RPA + 0.8100 LYP
 Using SG-1 standard quadrature grid
 using 8 threads for integral computing
 -------------------------------------------------------
 OpenMP Integral computing Module                
 Release: version 1.0, May 2013, Q-Chem Inc. Pittsburgh 
 -------------------------------------------------------
 -------------------------------------------------------
 OpenMP BLAS3 based DFT computing Module                
 Release: version 1.0, May 2013, Q-Chem Inc. Pittsburgh 
 -------------------------------------------------------
 A restricted SCF calculation will be
 performed using DIIS
 SCF converges when DIIS error is below 1.0e-08
 ---------------------------------------
  Cycle       Energy         DIIS error
 ---------------------------------------
    1    -529.5940099878      6.30e-04  
    2    -529.5942306608      4.21e-04  
    3    -529.5942062637      4.61e-04  
    4    -529.5943176058      1.06e-04  
    5    -529.5943233243      5.61e-05  
    6    -529.5943254772      5.55e-06  
    7    -529.5943255001      8.12e-07  
    8    -529.5943255007      1.83e-07  
    9    -529.5943255007      4.30e-08  
   10    -529.5943255007      5.88e-09  Convergence criterion met
 ---------------------------------------
 SCF time:   CPU 3.82s  wall 0.00s 
 SCF   energy in the final basis set =     -529.5943255007
 Total energy in the final basis set =     -529.5943255007
 
 --------------------------------------------------------------
 
                    Orbital Energies (a.u.)
 --------------------------------------------------------------
 
 Alpha MOs
 -- Occupied --
-88.905 -14.361 -10.262 -10.215  -7.972  -5.932  -5.932  -5.932
 -0.932  -0.818  -0.655  -0.504  -0.360  -0.360  -0.336  -0.335
 -0.327  -0.250
 -- Virtual --
 -0.065  -0.065   0.042   0.042   0.079   0.104   0.274   0.347
  0.347   0.386   0.454   0.515   0.539   0.539   0.589   0.625
  0.625   0.736   0.736   0.741   0.741   0.789   0.790   0.905
  0.917   1.010   1.179   1.245   1.442   1.443   1.522   1.522
  1.584   1.700   1.700   1.905   1.908   1.951   1.951   2.142
  2.142   2.324   2.431   2.847   2.930   2.931   3.590   3.899
  4.037   4.095   4.952
 --------------------------------------------------------------
 
          Ground-State Mulliken Net Atomic Charges

     Atom                 Charge (a.u.)
  ----------------------------------------
      1 H                     0.287477
      2 N                    -0.356512
      3 C                     0.080176
      4 C                    -0.059382
      5 S                     0.048241
  ----------------------------------------
  Sum of atomic charges =    -0.000000

 -----------------------------------------------------------------
                    Cartesian Multipole Moments
 -----------------------------------------------------------------
    Charge (ESU x 10^10)
                -0.0000
    Dipole Moment (Debye)
         X      -1.6653      Y       0.0000      Z      -0.1506
       Tot       1.6721
    Quadrupole Moments (Debye-Ang)
        XX     -24.3197     XY       0.0000     YY     -29.4446
        XZ      -1.3598     YZ       0.0000     ZZ     -29.6964
    Octopole Moments (Debye-Ang^2)
       XXX    -286.5819    XXY      -0.0000    XYY    -114.0482
       YYY      -0.0000    XXZ     -42.8576    XYZ       0.0000
       YYZ     -59.9277    XZZ    -112.9142    YZZ       0.0000
       ZZZ    -179.6801
    Hexadecapole Moments (Debye-Ang^3)
      XXXX   -3149.6322   XXXY      -0.0000   XXYY    -603.6326
      XYYY      -0.0000   YYYY     -31.6512   XXXZ    -613.3532
      XXYZ      -0.0000   XYYZ    -255.3837   YYYZ      -0.0000
      XXZZ    -678.9839   XYZZ       0.0000   YYZZ    -136.1338
      XZZZ    -755.9230   YZZZ       0.0000   ZZZZ    -782.9394
 -----------------------------------------------------------------
 Calculating analytic gradient of the SCF energy
 Gradient of SCF Energy
            1           2           3           4           5
    1   0.0107639   0.0113225  -0.0017293  -0.0118272  -0.0085298
    2   0.0000000   0.0000000  -0.0000000  -0.0000000   0.0000000
    3   0.0018124   0.0017251  -0.0017526   0.0010072  -0.0027920
 Max gradient component =       1.183E-02
 RMS gradient           =       5.644E-03
 Gradient time:  CPU 2.47 s  wall 0.31 s
 Geometry Optimization Parameters
   NAtoms,    NIC,     NZ,  NCons,   NDum,   NFix, NCnnct, MaxDiis
        5      19       0       0       0       0       0       0

 Cartesian Hessian Update
 Hessian Updated using BFGS Update


** GEOMETRY OPTIMIZATION IN CARTESIAN COORDINATES **
   Searching for a Minimum

   Optimization Cycle:   8

                       Coordinates (Angstroms)
     ATOM                X               Y               Z
      1  H        -0.3208126907    0.0000000000    1.4189865858
      2  N         0.6579935405    0.0000000000    1.5511753783
      3  C         1.8142078573    0.0000000000    1.7279794512
      4  C         4.5557938486    0.0000000000    2.0707229767
      5  S         6.0695582439    0.0000000000    2.3944082871
   Point Group: c1    Number of degrees of freedom:     9


   Energy is   -529.594325501


 Translations and Rotations Projected Out of Hessian

  7 Hessian modes will be used to form the next step
  Hessian Eigenvalues:
     0.033120    0.972877    1.000000    1.000027    1.002037    1.193575
     3.644238

 Minimum Search - Taking Simple RFO Step
 Searching for Lamda that Minimizes Along All modes
 Value Taken    Lamda =  -0.00893931
 Calculated Step too Large.  Step scaled by  0.652518
 Step Taken.  Stepsize is  0.300000

                             Maximum     Tolerance    Cnvgd?
         Gradient           0.011827      0.000300      NO
         Displacement       0.163140      0.001200      NO
         Energy change     -0.007506      0.000001      NO

 ----------------------------------------------------------------
             Standard Nuclear Orientation (Angstroms)
    I     Atom           X                Y                Z
 ----------------------------------------------------------------
    1      H      -0.3861303956     0.0000000000     1.4094727329
    2      N       0.6013164211     0.0000000000     1.5425298151
    3      C       1.7646216741     0.0000000000     1.7252698522
    4      C       4.6421237970     0.0000000000     2.0723791927
    5      S       6.1548093030     0.0000000000     2.4136210861
 ----------------------------------------------------------------
 Nuclear Repulsion Energy =    92.7193376446 hartrees
 There are       18 alpha and       18 beta electrons
 Applying Cartesian multipole field
    Component          Value
    ---------          -----
     (2,0,0)        1.00000E-12
     (0,2,0)        2.00000E-10
     (0,0,2)       -3.00000E-11
 Nucleus-field energy     =    -0.0000000140 hartrees
 Requested basis set is 6-31G(d,p)
 There are 20 shells and 69 basis functions
 A cutoff of  1.0D-11 yielded    170 shell pairs
 There are      2144 function pairs
 Smallest overlap matrix eigenvalue = 3.83E-03
 Guess MOs from SCF MO coefficient file

 -----------------------------------------------------------------------
  General SCF calculation program by
  Eric Jon Sundstrom, Paul Horn, Yuezhi Mao, Dmitri Zuev, Alec White,
  David Stuck, Shaama M.S., Shane Yost, Joonho Lee, David Small,
  Daniel Levine, Susi Lehtola, Hugh Burton, Evgeny Epifanovsky
 -----------------------------------------------------------------------
 Exchange:     0.2000 Hartree-Fock + 0.0800 Slater + 0.7200 B88
 Correlation:  0.1900 VWN1RPA + 0.8100 LYP
 Using SG-1 standard quadrature grid
 using 8 threads for integral computing
 -------------------------------------------------------
 OpenMP Integral computing Module                
 Release: version 1.0, May 2013, Q-Chem Inc. Pittsburgh 
 -------------------------------------------------------
 -------------------------------------------------------
 OpenMP BLAS3 based DFT computing Module                
 Release: version 1.0, May 2013, Q-Chem Inc. Pittsburgh 
 -------------------------------------------------------
 A restricted SCF calculation will be
 performed using DIIS
 SCF converges when DIIS error is below 1.0e-08
 ---------------------------------------
  Cycle       Energy         DIIS error
 ---------------------------------------
    1    -529.5987871328      5.06e-04  
    2    -529.5989517583      3.24e-04  
    3    -529.5989145447      4.08e-04  
    4    -529.5990071747      7.79e-05  
    5    -529.5990101050      4.30e-05  
    6    -529.5990113541      5.38e-06  
    7    -529.5990113752      7.93e-07  
    8    -529.5990113757      1.46e-07  
    9    -529.5990113757      3.22e-08  
   10    -529.5990113757      5.04e-09  Convergence criterion met
 ---------------------------------------
 SCF time:   CPU 3.80s  wall 1.00s 
 SCF   energy in the final basis set =     -529.5990113757
 Total energy in the final basis set =     -529.5990113757
 
 --------------------------------------------------------------
 
                    Orbital Energies (a.u.)
 --------------------------------------------------------------
 
 Alpha MOs
 -- Occupied --
-88.907 -14.364 -10.266 -10.220  -7.974  -5.934  -5.934  -5.934
 -0.930  -0.819  -0.653  -0.505  -0.359  -0.359  -0.337  -0.337
 -0.323  -0.261
 -- Virtual --
 -0.066  -0.066   0.038   0.038   0.076   0.102   0.273   0.346
  0.346   0.379   0.451   0.504   0.540   0.541   0.575   0.620
  0.621   0.736   0.736   0.740   0.740   0.780   0.780   0.902
  0.913   0.966   1.170   1.226   1.436   1.438   1.524   1.524
  1.558   1.698   1.698   1.902   1.903   1.945   1.945   2.134
  2.134   2.309   2.426   2.821   2.912   2.912   3.556   3.897
  4.020   4.092   4.888
 --------------------------------------------------------------
 
          Ground-State Mulliken Net Atomic Charges

     Atom                 Charge (a.u.)
  ----------------------------------------
      1 H                     0.292532
      2 N                    -0.358765
      3 C                     0.073510
      4 C                    -0.062559
      5 S                     0.055282
  ----------------------------------------
  Sum of atomic charges =     0.000000

 -----------------------------------------------------------------
                    Cartesian Multipole Moments
 -----------------------------------------------------------------
    Charge (ESU x 10^10)
                 0.0000
    Dipole Moment (Debye)
         X      -1.6292      Y      -0.0000      Z      -0.1321
       Tot       1.6345
    Quadrupole Moments (Debye-Ang)
        XX     -23.2955     XY      -0.0000     YY     -29.4755
        XZ      -1.0892     YZ      -0.0000     ZZ     -29.6350
    Octopole Moments (Debye-Ang^2)
       XXX    -281.6972    XXY      -0.0000    XYY    -114.9728
       YYY       0.0000    XXZ     -40.0415    XYZ      -0.0000
       YYZ     -60.1509    XZZ    -112.8595    YZZ      -0.0000
       ZZZ    -180.0189
    Hexadecapole Moments (Debye-Ang^3)
      XXXX   -3183.9818   XXXY      -0.0000   XXYY    -619.4281
      XYYY       0.0000   YYYY     -31.6893   XXXZ    -602.7340
      XXYZ      -0.0000   XYYZ    -259.3310   YYYZ       0.0000
      XXZZ    -687.1779   XYZZ      -0.0000   YYZZ    -137.1712
      XZZZ    -764.7464   YZZZ      -0.0000   ZZZZ    -788.0825
 -----------------------------------------------------------------
 Calculating analytic gradient of the SCF energy
 Gradient of SCF Energy
            1           2           3           4           5
    1   0.0021967   0.0014653   0.0099668  -0.0095517  -0.0040770
    2  -0.0000000   0.0000000  -0.0000000  -0.0000000   0.0000000
    3   0.0006751  -0.0000203   0.0003656   0.0006699  -0.0016903
 Max gradient component =       9.967E-03
 RMS gradient           =       3.813E-03
 Gradient time:  CPU 2.44 s  wall 0.31 s
 Geometry Optimization Parameters
   NAtoms,    NIC,     NZ,  NCons,   NDum,   NFix, NCnnct, MaxDiis
        5      19       0       0       0       0       0       0

 Cartesian Hessian Update
 Hessian Updated using BFGS Update


** GEOMETRY OPTIMIZATION IN CARTESIAN COORDINATES **
   Searching for a Minimum

   Optimization Cycle:   9

                       Coordinates (Angstroms)
     ATOM                X               Y               Z
      1  H        -0.3861303956    0.0000000000    1.4094727329
      2  N         0.6013164211    0.0000000000    1.5425298151
      3  C         1.7646216741    0.0000000000    1.7252698522
      4  C         4.6421237970    0.0000000000    2.0723791927
      5  S         6.1548093030    0.0000000000    2.4136210861
   Point Group: c1    Number of degrees of freedom:     9


   Energy is   -529.599011376


 Translations and Rotations Projected Out of Hessian

  7 Hessian modes will be used to form the next step
  Hessian Eigenvalues:
     0.022947    0.984031    1.000000    1.000074    1.003611    1.205136
     3.739467

 Minimum Search - Taking Simple RFO Step
 Searching for Lamda that Minimizes Along All modes
 Value Taken    Lamda =  -0.00540123
 Calculated Step too Large.  Step scaled by  0.689256
 Step Taken.  Stepsize is  0.300000

                             Maximum     Tolerance    Cnvgd?
         Gradient           0.009967      0.000300      NO
         Displacement       0.164955      0.001200      NO
         Energy change     -0.004686      0.000001      NO

 ----------------------------------------------------------------
             Standard Nuclear Orientation (Angstroms)
    I     Atom           X                Y                Z
 ----------------------------------------------------------------
    1      H      -0.4476039261     0.0000000000     1.4003302373
    2      N       0.5444839263     0.0000000000     1.5341166658
    3      C       1.7110092134     0.0000000000     1.7220529794
    4      C       4.7294140923     0.0000000000     2.0738954504
    5      S       6.2394374936     0.0000000000     2.4328773463
 ----------------------------------------------------------------
 Nuclear Repulsion Energy =    91.4536238053 hartrees
 There are       18 alpha and       18 beta electrons
 Applying Cartesian multipole field
    Component          Value
    ---------          -----
     (2,0,0)        1.00000E-12
     (0,2,0)        2.00000E-10
     (0,0,2)       -3.00000E-11
 Nucleus-field energy     =    -0.0000000140 hartrees
 Requested basis set is 6-31G(d,p)
 There are 20 shells and 69 basis functions
 A cutoff of  1.0D-11 yielded    169 shell pairs
 There are      2143 function pairs
 Smallest overlap matrix eigenvalue = 4.19E-03
 Guess MOs from SCF MO coefficient file

 -----------------------------------------------------------------------
  General SCF calculation program by
  Eric Jon Sundstrom, Paul Horn, Yuezhi Mao, Dmitri Zuev, Alec White,
  David Stuck, Shaama M.S., Shane Yost, Joonho Lee, David Small,
  Daniel Levine, Susi Lehtola, Hugh Burton, Evgeny Epifanovsky
 -----------------------------------------------------------------------
 Exchange:     0.2000 Hartree-Fock + 0.0800 Slater + 0.7200 B88
 Correlation:  0.1900 VWN1RPA + 0.8100 LYP
 Using SG-1 standard quadrature grid
 using 8 threads for integral computing
 -------------------------------------------------------
 OpenMP Integral computing Module                
 Release: version 1.0, May 2013, Q-Chem Inc. Pittsburgh 
 -------------------------------------------------------
 -------------------------------------------------------
 OpenMP BLAS3 based DFT computing Module                
 Release: version 1.0, May 2013, Q-Chem Inc. Pittsburgh 
 -------------------------------------------------------
 A restricted SCF calculation will be
 performed using DIIS
 SCF converges when DIIS error is below 1.0e-08
 ---------------------------------------
  Cycle       Energy         DIIS error
 ---------------------------------------
    1    -529.6018478332      4.12e-04  
    2    -529.6019852161      2.30e-04  
    3    -529.6019356791      3.68e-04  
    4    -529.6020169392      4.95e-05  
    5    -529.6020178862      3.09e-05  
    6    -529.6020185199      4.98e-06  
    7    -529.6020185372      8.34e-07  
    8    -529.6020185378      1.22e-07  
    9    -529.6020185378      2.53e-08  
   10    -529.6020185378      4.81e-09  Convergence criterion met
 ---------------------------------------
 SCF time:   CPU 3.84s  wall 1.00s 
 SCF   energy in the final basis set =     -529.6020185378
 Total energy in the final basis set =     -529.6020185378
 
 --------------------------------------------------------------
 
                    Orbital Energies (a.u.)
 --------------------------------------------------------------
 
 Alpha MOs
 -- Occupied --
-88.909 -14.366 -10.269 -10.224  -7.976  -5.936  -5.936  -5.936
 -0.929  -0.820  -0.652  -0.507  -0.359  -0.359  -0.338  -0.338
 -0.319  -0.269
 -- Virtual --
 -0.068  -0.068   0.036   0.036   0.074   0.100   0.273   0.345
  0.345   0.370   0.446   0.499   0.542   0.543   0.566   0.616
  0.616   0.736   0.736   0.738   0.738   0.772   0.773   0.896
  0.910   0.927   1.164   1.213   1.432   1.434   1.525   1.525
  1.534   1.696   1.696   1.899   1.900   1.942   1.942   2.130
  2.130   2.303   2.421   2.805   2.902   2.902   3.531   3.895
  4.008   4.085   4.855
 --------------------------------------------------------------
 
          Ground-State Mulliken Net Atomic Charges

     Atom                 Charge (a.u.)
  ----------------------------------------
      1 H                     0.295698
      2 N                    -0.357595
      3 C                     0.066404
      4 C                    -0.066148
      5 S                     0.061640
  ----------------------------------------
  Sum of atomic charges =     0.000000

 -----------------------------------------------------------------
                    Cartesian Multipole Moments
 -----------------------------------------------------------------
    Charge (ESU x 10^10)
                 0.0000
    Dipole Moment (Debye)
         X      -1.6020      Y      -0.0000      Z      -0.1143
       Tot       1.6060
    Quadrupole Moments (Debye-Ang)
[...]
   Point Group: c1    Number of degrees of freedom:     9


   Energy is   -529.609232848


 Translations and Rotations Projected Out of Hessian

  7 Hessian modes will be used to form the next step
  Hessian Eigenvalues:
     0.000015    0.166581    0.600788    0.757907    1.081744    1.111852
     3.742011
**WARNING** Magnitude of eigenvalue   1 too small.  Replaced by     0.000100

 Minimum Search - Taking Simple RFO Step
 Searching for Lamda that Minimizes Along All modes
 Value Taken    Lamda =  -0.00000175
 Step Taken.  Stepsize is  0.117263

                             Maximum     Tolerance    Cnvgd?
         Gradient           0.000131      0.000300     YES
         Displacement       0.068360      0.001200      NO
         Energy change     -0.000001      0.000001      NO

 ----------------------------------------------------------------
             Standard Nuclear Orientation (Angstroms)
    I     Atom           X                Y                Z
 ----------------------------------------------------------------
    1      H      -2.5913765259     0.0000000000     1.0286643232
    2      N      -1.6251390271     0.0000000000     1.2799011974
    3      C      -0.4879496585     0.0000000000     1.5825604530
    4      C       8.1633623514     0.0000000000     2.1200416607
    5      S       9.3178436596     0.0000000000     3.1521050448
 ----------------------------------------------------------------
 Nuclear Repulsion Energy =    72.7701888780 hartrees
 There are       18 alpha and       18 beta electrons
 Applying Cartesian multipole field
    Component          Value
    ---------          -----
     (2,0,0)        1.00000E-12
     (0,2,0)        2.00000E-10
     (0,0,2)       -3.00000E-11
 Nucleus-field energy     =    -0.0000000164 hartrees
 Requested basis set is 6-31G(d,p)
 There are 20 shells and 69 basis functions
 A cutoff of  1.0D-11 yielded    111 shell pairs
 There are      1342 function pairs
 Smallest overlap matrix eigenvalue = 5.62E-03
 Guess MOs from SCF MO coefficient file

 -----------------------------------------------------------------------
  General SCF calculation program by
  Eric Jon Sundstrom, Paul Horn, Yuezhi Mao, Dmitri Zuev, Alec White,
  David Stuck, Shaama M.S., Shane Yost, Joonho Lee, David Small,
  Daniel Levine, Susi Lehtola, Hugh Burton, Evgeny Epifanovsky
 -----------------------------------------------------------------------
 Exchange:     0.2000 Hartree-Fock + 0.0800 Slater + 0.7200 B88
 Correlation:  0.1900 VWN1RPA + 0.8100 LYP
 Using SG-1 standard quadrature grid
 using 8 threads for integral computing
 -------------------------------------------------------
 OpenMP Integral computing Module                
 Release: version 1.0, May 2013, Q-Chem Inc. Pittsburgh 
 -------------------------------------------------------
 -------------------------------------------------------
 OpenMP BLAS3 based DFT computing Module                
 Release: version 1.0, May 2013, Q-Chem Inc. Pittsburgh 
 -------------------------------------------------------
 A restricted SCF calculation will be
 performed using DIIS
 SCF converges when DIIS error is below 1.0e-08
 ---------------------------------------
  Cycle       Energy         DIIS error
 ---------------------------------------
    1    -529.6092188713      1.01e-04  
    2    -529.6092341924      1.68e-05  
    3    -529.6092344495      1.11e-05  
    4    -529.6092344315      1.24e-05  
    5    -529.6092345432      8.83e-07  
    6    -529.6092345439      2.15e-07  
    7    -529.6092345439      1.32e-07  
    8    -529.6092345439      3.38e-08  
    9    -529.6092345439      2.36e-09  Convergence criterion met
 ---------------------------------------
 SCF time:   CPU 2.94s  wall 1.00s 
 SCF   energy in the final basis set =     -529.6092345439
 Total energy in the final basis set =     -529.6092345439
 
 --------------------------------------------------------------
 
                    Orbital Energies (a.u.)
 --------------------------------------------------------------
 
 Alpha MOs
 -- Occupied --
-88.923 -14.375 -10.284 -10.234  -7.990  -5.950  -5.950  -5.950
 -0.940  -0.833  -0.662  -0.519  -0.369  -0.369  -0.350  -0.350
 -0.311  -0.307
 -- Virtual --
 -0.080  -0.080   0.027   0.027   0.069   0.088   0.265   0.335
  0.336   0.350   0.415   0.500   0.523   0.554   0.554   0.582
  0.583   0.635   0.726   0.726   0.730   0.730   0.745   0.745
  0.895   0.897   1.147   1.160   1.403   1.427   1.428   1.513
  1.513   1.683   1.683   1.887   1.887   1.935   1.935   2.123
  2.123   2.304   2.370   2.787   2.900   2.900   3.440   3.883
  3.993   4.021   4.871
 --------------------------------------------------------------
 
          Ground-State Mulliken Net Atomic Charges

     Atom                 Charge (a.u.)
  ----------------------------------------
      1 H                     0.300987
      2 N                    -0.348496
      3 C                     0.047509
      4 C                    -0.095527
      5 S                     0.095527
  ----------------------------------------
  Sum of atomic charges =     0.000000

 -----------------------------------------------------------------
                    Cartesian Multipole Moments
 -----------------------------------------------------------------
    Charge (ESU x 10^10)
                 0.0000
    Dipole Moment (Debye)
         X      -1.6997      Y       0.0000      Z       0.2633
       Tot       1.7200
    Quadrupole Moments (Debye-Ang)
        XX      -2.5641     XY       0.0000     YY     -29.3942
        XZ       8.3184     YZ       0.0000     ZZ     -26.7122
    Octopole Moments (Debye-Ang^2)
       XXX    -232.5316    XXY       0.0000    XYY    -147.3394
       YYY      -0.0000    XXZ      55.4755    XYZ       0.0000
       YYZ     -66.8274    XZZ    -103.6670    YZZ       0.0000
       ZZZ    -187.1044
    Hexadecapole Moments (Debye-Ang^3)
      XXXX   -6022.4155   XXXY       0.0000   XXYY   -1468.1783
      XYYY      -0.0000   YYYY     -31.4387   XXXZ    -166.3065
      XXYZ       0.0000   XYYZ    -440.1869   YYYZ       0.0000
      XXZZ   -1173.3893   XYZZ       0.0000   YYZZ    -180.8782
      XZZZ   -1152.3317   YZZZ       0.0000   ZZZZ    -998.6128
 -----------------------------------------------------------------
 Calculating analytic gradient of the SCF energy
 Gradient of SCF Energy
            1           2           3           4           5
    1  -0.0000067   0.0001448  -0.0001108   0.0000962  -0.0001235
    2  -0.0000000   0.0000000  -0.0000000   0.0000000  -0.0000000
    3   0.0000981  -0.0000967  -0.0000142  -0.0000240   0.0000369
 Max gradient component =       1.448E-04
 RMS gradient           =       7.253E-05
 Gradient time:  CPU 2.24 s  wall 0.28 s
 Geometry Optimization Parameters
   NAtoms,    NIC,     NZ,  NCons,   NDum,   NFix, NCnnct, MaxDiis
        5      19       0       0       0       0       0       0

 Cartesian Hessian Update
 Hessian Updated using BFGS Update


** GEOMETRY OPTIMIZATION IN CARTESIAN COORDINATES **
   Searching for a Minimum

   Optimization Cycle:  51

                       Coordinates (Angstroms)
     ATOM                X               Y               Z
      1  H        -2.5913765259    0.0000000000    1.0286643232
      2  N        -1.6251390271    0.0000000000    1.2799011974
      3  C        -0.4879496585    0.0000000000    1.5825604530
      4  C         8.1633623514    0.0000000000    2.1200416607
      5  S         9.3178436596    0.0000000000    3.1521050448
   Point Group: c1    Number of degrees of freedom:     9


   Energy is   -529.609234544


 Translations and Rotations Projected Out of Hessian

  7 Hessian modes will be used to form the next step
  Hessian Eigenvalues:
     0.000001    0.098268    0.691397    0.864674    1.103904    1.468672
     3.845074
**WARNING** Magnitude of eigenvalue   1 too small.  Replaced by     0.000100

 Minimum Search - Taking Simple RFO Step
 Searching for Lamda that Minimizes Along All modes
 Value Taken    Lamda =  -0.00000233
 Step Taken.  Stepsize is  0.135776

                             Maximum     Tolerance    Cnvgd?
         Gradient           0.000145      0.000300     YES
         Displacement       0.078748      0.001200      NO
         Energy change     -0.000002      0.000001      NO

 ----------------------------------------------------------------
             Standard Nuclear Orientation (Angstroms)
    I     Atom           X                Y                Z
 ----------------------------------------------------------------
    1      H      -2.6167289656     0.0000000000     1.0233927016
    2      N      -1.6513365173     0.0000000000     1.2778008945
    3      C      -0.5142492899     0.0000000000     1.5808228973
    4      C       8.2050340260     0.0000000000     2.1214713178
    5      S       9.3540215463     0.0000000000     3.1597848679
 ----------------------------------------------------------------
 Nuclear Repulsion Energy =    72.6677724721 hartrees
 There are       18 alpha and       18 beta electrons
 Applying Cartesian multipole field
    Component          Value
    ---------          -----
     (2,0,0)        1.00000E-12
     (0,2,0)        2.00000E-10
     (0,0,2)       -3.00000E-11
 Nucleus-field energy     =    -0.0000000164 hartrees
 Requested basis set is 6-31G(d,p)
 There are 20 shells and 69 basis functions
 A cutoff of  1.0D-11 yielded    111 shell pairs
 There are      1342 function pairs
 Smallest overlap matrix eigenvalue = 5.62E-03
 Guess MOs from SCF MO coefficient file

 -----------------------------------------------------------------------
  General SCF calculation program by
  Eric Jon Sundstrom, Paul Horn, Yuezhi Mao, Dmitri Zuev, Alec White,
  David Stuck, Shaama M.S., Shane Yost, Joonho Lee, David Small,
  Daniel Levine, Susi Lehtola, Hugh Burton, Evgeny Epifanovsky
 -----------------------------------------------------------------------
 Exchange:     0.2000 Hartree-Fock + 0.0800 Slater + 0.7200 B88
 Correlation:  0.1900 VWN1RPA + 0.8100 LYP
 Using SG-1 standard quadrature grid
 using 8 threads for integral computing
 -------------------------------------------------------
 OpenMP Integral computing Module                
 Release: version 1.0, May 2013, Q-Chem Inc. Pittsburgh 
 -------------------------------------------------------
 -------------------------------------------------------
 OpenMP BLAS3 based DFT computing Module                
 Release: version 1.0, May 2013, Q-Chem Inc. Pittsburgh 
 -------------------------------------------------------
 A restricted SCF calculation will be
 performed using DIIS
 SCF converges when DIIS error is below 1.0e-08
 ---------------------------------------
  Cycle       Energy         DIIS error
 ---------------------------------------
    1    -529.6092159163      1.11e-04  
    2    -529.6092341486      1.79e-05  
    3    -529.6092345325      4.60e-06  
    4    -529.6092345397      4.62e-06  
    5    -529.6092345525      1.84e-06  
    6    -529.6092345549      4.08e-07  
    7    -529.6092345550      1.41e-07  
    8    -529.6092345550      2.26e-08  
    9    -529.6092345550      1.18e-09  Convergence criterion met
 ---------------------------------------
 SCF time:   CPU 3.02s  wall 0.00s 
 SCF   energy in the final basis set =     -529.6092345550
 Total energy in the final basis set =     -529.6092345550
 
 --------------------------------------------------------------
 
                    Orbital Energies (a.u.)
 --------------------------------------------------------------
 
 Alpha MOs
 -- Occupied --
-88.923 -14.375 -10.284 -10.234  -7.990  -5.950  -5.950  -5.950
 -0.940  -0.833  -0.662  -0.519  -0.369  -0.369  -0.350  -0.350
 -0.311  -0.307
 -- Virtual --
 -0.080  -0.080   0.027   0.027   0.069   0.088   0.265   0.335
  0.336   0.350   0.415   0.500   0.523   0.554   0.554   0.582
  0.582   0.635   0.726   0.726   0.730   0.730   0.744   0.744
  0.895   0.897   1.146   1.160   1.403   1.427   1.427   1.513
  1.513   1.683   1.683   1.887   1.887   1.935   1.935   2.123
  2.123   2.304   2.370   2.787   2.900   2.900   3.440   3.882
  3.993   4.021   4.871
 --------------------------------------------------------------
 
          Ground-State Mulliken Net Atomic Charges

     Atom                 Charge (a.u.)
  ----------------------------------------
      1 H                     0.300991
      2 N                    -0.348483
      3 C                     0.047492
      4 C                    -0.095551
      5 S                     0.095551
  ----------------------------------------
  Sum of atomic charges =     0.000000

 -----------------------------------------------------------------
                    Cartesian Multipole Moments
 -----------------------------------------------------------------
    Charge (ESU x 10^10)
                 0.0000
    Dipole Moment (Debye)
         X      -1.7034      Y      -0.0000      Z       0.2625
       Tot       1.7235
    Quadrupole Moments (Debye-Ang)
        XX      -2.4234     XY      -0.0000     YY     -29.3944
        XZ       8.4429     YZ      -0.0000     ZZ     -26.6909
    Octopole Moments (Debye-Ang^2)
       XXX    -233.1554    XXY      -0.0000    XYY    -147.7179
       YYY      -0.0000    XXZ      56.6245    XYZ      -0.0000
       YYZ     -66.9068    XZZ    -103.4846    YZZ      -0.0000
       ZZZ    -187.1975
    Hexadecapole Moments (Debye-Ang^3)
      XXXX   -6071.5219   XXXY      -0.0000   XXYY   -1480.9893
      XYYY      -0.0000   YYYY     -31.4391   XXXZ    -158.4768
      XXYZ      -0.0000   XYYZ    -442.6311   YYYZ      -0.0000
      XXZZ   -1180.6881   XYZZ      -0.0000   YYZZ    -181.4440
      XZZZ   -1157.3619   YZZZ      -0.0000   ZZZZ   -1001.2789
 -----------------------------------------------------------------
 Calculating analytic gradient of the SCF energy
 Gradient of SCF Energy
            1           2           3           4           5
    1   0.0000166   0.0001195  -0.0001099   0.0000471  -0.0000733
    2   0.0000000   0.0000000  -0.0000000   0.0000000  -0.0000000
    3   0.0000665  -0.0000342  -0.0000448  -0.0000622   0.0000748
 Max gradient component =       1.195E-04
 RMS gradient           =       5.848E-05
 Gradient time:  CPU 2.24 s  wall 0.28 s
 Geometry Optimization Parameters
   NAtoms,    NIC,     NZ,  NCons,   NDum,   NFix, NCnnct, MaxDiis
        5      19       0       0       0       0       0       0

 Cartesian Hessian Update
 Hessian Updated using BFGS Update


** GEOMETRY OPTIMIZATION IN CARTESIAN COORDINATES **
   Searching for a Minimum

   Optimization Cycle:  52

                       Coordinates (Angstroms)
     ATOM                X               Y               Z
      1  H        -2.6167289656    0.0000000000    1.0233927016
      2  N        -1.6513365173    0.0000000000    1.2778008945
      3  C        -0.5142492899    0.0000000000    1.5808228973
      4  C         8.2050340260    0.0000000000    2.1214713178
      5  S         9.3540215463    0.0000000000    3.1597848679
   Point Group: c1    Number of degrees of freedom:     9


   Energy is   -529.609234555


 Translations and Rotations Projected Out of Hessian

  7 Hessian modes will be used to form the next step
  Hessian Eigenvalues:
     0.000003    0.028023    0.691753    0.866906    1.107141    1.465690
     3.782973
**WARNING** Magnitude of eigenvalue   1 too small.  Replaced by     0.000100

 Minimum Search - Taking Simple RFO Step
 Searching for Lamda that Minimizes Along All modes
 Value Taken    Lamda =  -0.00000211
 Step Taken.  Stepsize is  0.121191

                             Maximum     Tolerance    Cnvgd?
         Gradient           0.000120      0.000300     YES
         Displacement       0.069872      0.001200      NO
         Energy change     -0.000000      0.000001     YES


                       Distance Matrix (Angstroms)
             H (  1)   N (  2)   C (  3)   C (  4)
   N (  2)  0.998352
   C (  3)  2.175121  1.176771
   C (  4) 10.877331  9.892412  8.736029
   S (  5) 12.159895 11.165114  9.993793  1.548634
 
 Final energy is   -529.609234555049     


 ******************************
 **  OPTIMIZATION CONVERGED  **
 ******************************

                       Coordinates (Angstroms)
     ATOM                X               Y               Z
      1  H        -2.6167289656    0.0000000000    1.0233927016
      2  N        -1.6513365173    0.0000000000    1.2778008945
      3  C        -0.5142492899    0.0000000000    1.5808228973
      4  C         8.2050340260    0.0000000000    2.1214713178
      5  S         9.3540215463    0.0000000000    3.1597848679

Z-matrix Print:
$molecule
0 1
S 
C  1 1.548634
C  2 8.736029 1 141.444748
N  3 1.176771 2 168.626194 1 -180.000000 0
H  4 0.998352 3 179.841458 2 -180.000000 0
$end

 
 --------------------------------------------------------------
 
                    Orbital Energies (a.u.)
 --------------------------------------------------------------
 
 Alpha MOs
 -- Occupied --
-88.923 -14.375 -10.284 -10.234  -7.990  -5.950  -5.950  -5.950
 -0.940  -0.833  -0.662  -0.519  -0.369  -0.369  -0.350  -0.350
 -0.311  -0.307
 -- Virtual --
 -0.080  -0.080   0.027   0.027   0.069   0.088   0.265   0.335
  0.336   0.350   0.415   0.500   0.523   0.554   0.554   0.582
  0.582   0.635   0.726   0.726   0.730   0.730   0.744   0.744
  0.895   0.897   1.146   1.160   1.403   1.427   1.427   1.513
  1.513   1.683   1.683   1.887   1.887   1.935   1.935   2.123
  2.123   2.304   2.370   2.787   2.900   2.900   3.440   3.882
  3.993   4.021   4.871
 --------------------------------------------------------------
 
          Ground-State Mulliken Net Atomic Charges

     Atom                 Charge (a.u.)
  ----------------------------------------
      1 H                     0.300991
      2 N                    -0.348483
      3 C                     0.047492
      4 C                    -0.095551
      5 S                     0.095551
  ----------------------------------------
  Sum of atomic charges =     0.000000

 -----------------------------------------------------------------
                    Cartesian Multipole Moments
 -----------------------------------------------------------------
    Charge (ESU x 10^10)
                 0.0000
    Dipole Moment (Debye)
         X      -1.7034      Y      -0.0000      Z       0.2625
       Tot       1.7235
    Quadrupole Moments (Debye-Ang)
        XX      -2.4234     XY      -0.0000     YY     -29.3944
        XZ       8.4429     YZ      -0.0000     ZZ     -26.6909
    Octopole Moments (Debye-Ang^2)
       XXX    -233.1554    XXY      -0.0000    XYY    -147.7179
       YYY      -0.0000    XXZ      56.6245    XYZ      -0.0000
       YYZ     -66.9068    XZZ    -103.4846    YZZ      -0.0000
       ZZZ    -187.1975
    Hexadecapole Moments (Debye-Ang^3)
      XXXX   -6071.5219   XXXY      -0.0000   XXYY   -1480.9893
      XYYY      -0.0000   YYYY     -31.4391   XXXZ    -158.4768
      XXYZ      -0.0000   XYYZ    -442.6311   YYYZ      -0.0000
      XXZZ   -1180.6881   XYZZ      -0.0000   YYZZ    -181.4440
      XZZZ   -1157.3619   YZZZ      -0.0000   ZZZZ   -1001.2789
 -----------------------------------------------------------------
Archival summary:
1\1\node1\OPT\ProcedureUnspecified\6-31G**\1121\songzl\ThuApr618:16:232023ThuApr618:16:232023\0\\#,OPT,ProcedureUnspecified,6-31G**,\\0,1\S\C,1,1.54863\C,2,8.73603,1,141.445\N,3,1.17677,2,168.626,1,-180,0\H,4,0.998352,3,179.841,2,-180,0\\\@

 Total job time:  41.02s(wall), 322.98s(cpu) 
 Thu Apr  6 18:16:23 2023

        *************************************************************
        *                                                           *
        *  Thank you very much for using Q-Chem.  Have a nice day.  *
        *                                                           *
        *************************************************************


