
Running Job 1 of 1 baker_set_reactant.inp
qchem baker_set_reactant.inp_4450.0 /tmp/songzl/qchem_baker_set/qchem4450/ 1
/apps/apps/qchem/qc51/exe/qcprog.exe_s baker_set_reactant.inp_4450.0 /tmp/songzl/qchem_baker_set/qchem4450/
Check license passed

                  Welcome to Q-Chem
     A Quantum Leap Into The Future Of Chemistry


 Q-Chem 5.1, Q-Chem, Inc., Pleasanton, CA (2018)

 Yihan Shao,  Zhengting Gan,  E. Epifanovsky,  A. T. B. Gilbert,  M. Wormit,  
 J. Kussmann,  A. W. Lange,  A. Behn,  Jia Deng,  Xintian Feng,  D. Ghosh,  
 M. Goldey,  P. R. Horn,  L. D. Jacobson,  I. Kaliman,  T. Kus,  A. Landau,  
 Jie Liu,  E. I. Proynov,  R. M. Richard,  R. P. Steele,  E. J. Sundstrom,  
 H. L. Woodcock III,  P. M. Zimmerman,  D. Zuev,  B. Albrecht,  E. Alguire,  
 S. A. Baeppler,  D. Barton,  Z. Benda,  Y. A. Bernard,  E. J. Berquist,  
 K. B. Bravaya,  H. Burton,  D. Casanova,  Chun-Min Chang,  Yunqing Chen,  
 A. Chien,  K. D. Closser,  M. P. Coons,  S. Coriani,  S. Dasgupta,  
 A. L. Dempwolff,  M. Diedenhofen,  Hainam Do,  R. G. Edgar,  Po-Tung Fang,  
 S. Faraji,  S. Fatehi,  Qingguo Feng,  K. D. Fenk,  J. Fosso-Tande,  
 Qinghui Ge,  A. Ghysels,  G. Gidofalvi,  J. Gomes,  J. Gonthier,  A. Gunina,  
 D. Hait,  M. W. D. Hanson-Heine,  P. H. P. Harbach,  A. W. Hauser,  
 J. E. Herr,  E. G. Hohenstein,  Z. C. Holden,  Kerwin Hui,  B. C. Huynh,  
 T.-C. Jagau,  Hyunjun Ji,  B. Kaduk,  K. Khistyaev,  Jaehoon Kim,  
 P. Klunzinger,  K. Koh,  D. Kosenkov,  L. Koulias,  T. Kowalczyk,  
 C. M. Krauter,  A. Kunitsa,  Ka Un Lao,  A. Laurent,  K. V. Lawler,  
 Joonho Lee,  D. Lefrancois,  S. Lehtola,  D. S. Levine,  Yi-Pei Li,  
 You-Sheng Lin,  Fenglai Liu,  E. Livshits,  A. Luenser,  P. Manohar,  
 E. Mansoor,  S. F. Manzer,  Shan-Ping Mao,  Yuezhi Mao,  N. Mardirossian,  
 A. V. Marenich,  T. Markovich,  L. A. Martinez-Martinez,  S. A. Maurer,  
 N. J. Mayhall,  S. C. McKenzie,  J.-M. Mewes,  A. F. Morrison,  
 J. W. Mullinax,  K. Nanda,  T. S. Nguyen-Beck,  R. Olivares-Amaya,  
 J. A. Parkhill,  T. M. Perrine,  F. Plasser,  P. Pokhilko,  S. Prager,  
 A. Prociuk,  E. Ramos,  D. R. Rehn,  F. Rob,  M. Schneider,  N. Sergueev,  
 S. M. Sharada,  S. Sharma,  D. W. Small,  T. Stauch,  T. Stein,  
 Yu-Chuan Su,  A. J. W. Thom,  A. Tkatchenko,  T. Tsuchimochi,  N. M. Tubman,  
 L. Vogt,  M. L. Vidal,  O. Vydrov,  M. A. Watson,  J. Wenzel,  
 M. de Wergifosse,  T. A. Wesolowski,  A. White,  J. Witte,  A. Yamada,  
 Jun Yang,  K. Yao,  S. Yeganeh,  S. R. Yost,  Zhi-Qiang You,  A. Zech,  
 Igor Ying Zhang,  Xing Zhang,  Yan Zhao,  Ying Zhu,  B. R. Brooks,  
 G. K. L. Chan,  C. J. Cramer,  M. S. Gordon,  W. J. Hehre,  A. Klamt,  
 M. W. Schmidt,  C. D. Sherrill,  D. G. Truhlar,  A. Aspuru-Guzik,  R. Baer,  
 A. T. Bell,  N. A. Besley,  Jeng-Da Chai,  A. E. DePrince, III,  
 R. A. DiStasio Jr.,  A. Dreuw,  B. D. Dunietz,  T. R. Furlani,  
 Chao-Ping Hsu,  Yousung Jung,  Jing Kong,  D. S. Lambrecht,  WanZhen Liang,  
 C. Ochsenfeld,  V. A. Rassolov,  L. V. Slipchenko,  J. E. Subotnik,  
 T. Van Voorhis,  J. M. Herbert,  A. I. Krylov,  P. M. W. Gill,  M. Head-Gordon

 Contributors to earlier versions of Q-Chem not listed above: 
 R. D. Adamson,  B. Austin,  J. Baker,  G. J. O. Beran,  K. Brandhorst,  
 S. T. Brown,  E. F. C. Byrd,  A. K. Chakraborty,  C.-L. Cheng,  
 Siu Hung Chien,  D. M. Chipman,  D. L. Crittenden,  H. Dachsel,  
 R. J. Doerksen,  A. D. Dutoi,  L. Fusti-Molnar,  W. A. Goddard III,  
 A. Golubeva-Zadorozhnaya,  S. R. Gwaltney,  G. Hawkins,  A. Heyden,  
 S. Hirata,  G. Kedziora,  F. J. Keil,  C. Kelley,  Jihan Kim,  R. A. King,  
 R. Z. Khaliullin,  P. P. Korambath,  W. Kurlancheek,  A. M. Lee,  M. S. Lee,  
 S. V. Levchenko,  Ching Yeh Lin,  D. Liotard,  R. C. Lochan,  I. Lotan,  
 P. E. Maslen,  N. Nair,  D. P. O'Neill,  D. Neuhauser,  E. Neuscamman,  
 C. M. Oana,  R. Olson,  B. Peters,  R. Peverati,  P. A. Pieniazek,  
 Y. M. Rhee,  J. Ritchie,  M. A. Rohrdanz,  E. Rosta,  N. J. Russ,  
 H. F. Schaefer III,  N. E. Schultz,  N. Shenvi,  A. C. Simmonett,  A. Sodt,  
 D. Stuck,  K. S. Thanthiriwatte,  V. Vanovschi,  Tao Wang,  A. Warshel,  
 C. F. Williams,  Q. Wu,  X. Xu,  W. Zhang

 Please cite Q-Chem as follows:
 Y. Shao et al., Mol. Phys. 113, 184-215 (2015)
 DOI: 10.1080/00268976.2014.952696

 Q-Chem 5.1.1 for Intel X86 EM64T Linux

 Parts of Q-Chem use Armadillo 8.300.2 (Tropical Shenanigans).
 http://arma.sourceforge.net/

 Q-Chem begins on Mon Mar 27 21:29:23 2023  

Host: 
0

     Scratch files written to /tmp/songzl/qchem_baker_set/qchem4450//
 Aug318 |scratch|qcdevops|jenkins|workspace|build_RNUM 6609   
Processing $rem in /apps/apps/qchem/qc51/config/preferences.
 MEM_TOTAL  1000 
The previous job contains 0 fragments, simply inherited here
Input Ideriv = 2
Curr. Ideriv = -1
Max.  Ideriv = 2

Checking the input file for inconsistencies... 	...done.

--------------------------------------------------------------
User input:
--------------------------------------------------------------
$molecule
READ ./zmat.inp
$end

$rem
mem_total               230000
mem_static              2048
job_type                optimization
basis                   6-31g**
method                  b3lyp
symmetry                false
sym_ignore              true
geom_opt_max_cycles     500
$end
--------------------------------------------------------------
 ----------------------------------------------------------------
             Standard Nuclear Orientation (Angstroms)
    I     Atom           X                Y                Z
 ----------------------------------------------------------------
    1      C       0.0000000000     0.0000000000     0.0000000000
    2      C       0.0000000000     0.0000000000     1.4300000000
    3      O       1.1258330249     0.0000000000     2.0800000000
    4      H      -0.4328730755    -0.9282993062    -0.3728019562
    5      H      -0.5121324783     0.8870394727    -0.3728019562
    6      H      -0.9403756081     0.0822722052     1.9750000000
    7      H       1.1236085704     0.1018967679     0.7338528682
 ----------------------------------------------------------------
 Nuclear Repulsion Energy =    70.9657587585 hartrees
 There are       12 alpha and       12 beta electrons
 Requested basis set is 6-31G(d,p)
 There are 24 shells and 65 basis functions

 Total QAlloc Memory Limit 230000 MB
 Mega-Array Size      2002 MB
 MEM_STATIC part      2048 MB
 A cutoff of  1.0D-11 yielded    297 shell pairs
 There are      2231 function pairs
 
 -------------------------------------------------------
 OpenMP Integral Computing Module                       
 Release: version 1.0, May 2013, Q-Chem Inc. Pittsburgh 
 -------------------------------------------------------
 Integral Job Info:
 Integral job number is                      11
 Integral operator is                         1
 short-range coefficients                     0
 long-range coefficients              100000000
 Omega coefficients                           0
 if combine SR and LR in K                    0
 Integral screening is                        0
 Integral computing path is                   2
 max size of driver memory is            800000
 size of driver memory is                593474
 size of scratch memory is              2361544
 max col of scratch BK array               1296
 max len of scratch array in speh3          155
 max len of scratch index in speh4           18
 max int batch size is                      520
 min int batch size is                       52
 fixed nKL is                                52
 max L of basis functions is                  2
 order of int derivative is                   0
 number of shells is                         24
 number of basis is                          65
 number of cartesian basis is                65
 number of contracted shell pairs           297
 number of primitive shell pairs           1188
 maxK2 (contraction) of shell pair           36
 max number of K2 of shell pair               1
 max number of CS2 of shell pair             26
 max number of PS2 of shell pair            108
 mem total for path MDJ                  511410
 -------------------------------------------------------
 Smallest overlap matrix eigenvalue = 5.75E-03

 Scale SEOQF with 1.000000e+00/1.000000e+00/1.000000e-01

 Standard Electronic Orientation quadrupole field applied
 Nucleus-field energy     =     0.0000000002 hartrees
 Guess from superposition of atomic densities
 Warning:  Energy on first SCF cycle will be non-variational
 SAD guess density has 24.000000 electrons

 -----------------------------------------------------------------------
  General SCF calculation program by
  Eric Jon Sundstrom, Paul Horn, Yuezhi Mao, Dmitri Zuev, Alec White,
  David Stuck, Shaama M.S., Shane Yost, Joonho Lee, David Small,
  Daniel Levine, Susi Lehtola, Hugh Burton, Evgeny Epifanovsky
 -----------------------------------------------------------------------
 Exchange:     0.2000 Hartree-Fock + 0.0800 Slater + 0.7200 B88
 Correlation:  0.1900 VWN1RPA + 0.8100 LYP
 Using SG-1 standard quadrature grid
 using 8 threads for integral computing
 -------------------------------------------------------
 OpenMP Integral computing Module                
 Release: version 1.0, May 2013, Q-Chem Inc. Pittsburgh 
 -------------------------------------------------------
 -------------------------------------------------------
 OpenMP BLAS3 based DFT computing Module                
 Release: version 1.0, May 2013, Q-Chem Inc. Pittsburgh 
 -------------------------------------------------------
 A restricted SCF calculation will be
 performed using DIIS
 SCF converges when DIIS error is below 1.0e-08
 ---------------------------------------
  Cycle       Energy         DIIS error
 ---------------------------------------
    1    -154.2612581808      8.83e-02  
    2    -153.6171583287      1.31e-02  
    3    -153.5096905643      2.09e-02  
    4    -153.6834637365      5.99e-03  
    5    -153.6998778125      9.51e-04  
    6    -153.7002639599      3.09e-04  
    7    -153.7003139716      3.89e-05  
    8    -153.7003146408      7.47e-06  
    9    -153.7003146669      2.08e-06  
   10    -153.7003146693      1.61e-07  
   11    -153.7003146694      4.42e-08  
   12    -153.7003146694      1.09e-08  
   13    -153.7003146694      3.21e-09  Convergence criterion met
 ---------------------------------------
 SCF time:   CPU 5.48s  wall 1.00s 
 SCF   energy in the final basis set =     -153.7003146694
 Total energy in the final basis set =     -153.7003146694
 
 --------------------------------------------------------------
 
                    Orbital Energies (a.u.)
 --------------------------------------------------------------
 
 Alpha MOs
 -- Occupied --
-19.193 -10.316 -10.176  -1.076  -0.775  -0.596  -0.540  -0.458
 -0.443  -0.372  -0.316  -0.252
 -- Virtual --
 -0.072   0.097   0.129   0.152   0.172   0.241   0.293   0.505
  0.518   0.550   0.594   0.600   0.617   0.729   0.774   0.837
  0.843   0.910   0.926   0.947   1.063   1.221   1.328   1.366
  1.420   1.588   1.663   1.742   1.772   1.862   1.936   1.988
  2.008   2.026   2.091   2.272   2.318   2.463   2.487   2.525
  2.566   2.681   2.742   2.826   2.915   2.930   3.214   3.345
  3.431   3.544   3.782   4.399   4.512
 --------------------------------------------------------------
 
          Ground-State Mulliken Net Atomic Charges

     Atom                 Charge (a.u.)
  ----------------------------------------
      1 C                    -0.453795
      2 C                     0.262568
      3 O                    -0.396972
      4 H                     0.134362
      5 H                     0.128119
      6 H                     0.108623
      7 H                     0.217095
  ----------------------------------------
  Sum of atomic charges =     0.000000

 -----------------------------------------------------------------
                    Cartesian Multipole Moments
 -----------------------------------------------------------------
    Charge (ESU x 10^10)
                 0.0000
    Dipole Moment (Debye)
         X      -2.1830      Y       0.0291      Z      -0.3230
       Tot       2.2069
    Quadrupole Moments (Debye-Ang)
        XX     -20.4051     XY       0.0559     YY     -17.5387
        XZ      -2.8607     YZ       0.1430     ZZ     -22.0545
    Octopole Moments (Debye-Ang^2)
       XXX     -19.2633    XXY       0.0909    XYY      -6.2316
       YYY      -0.5210    XXZ     -22.1752    XYZ       0.0496
       YYZ     -19.2488    XZZ     -14.3120    YZZ      -0.0499
       ZZZ     -68.9121
    Hexadecapole Moments (Debye-Ang^3)
      XXXX     -72.8069   XXXY       0.1290   XXYY     -15.4263
      XYYY       0.0648   YYYY     -22.3759   XXXZ     -39.8412
      XXYZ       0.0700   XYYZ     -11.1392   YYYZ      -0.5085
      XXZZ     -58.1919   XYZZ      -0.0529   YYZZ     -42.5199
      XZZZ     -54.7628   YZZZ      -0.5549   ZZZZ    -265.8167
 -----------------------------------------------------------------
 Calculating analytic gradient of the SCF energy
 Gradient of SCF Energy
            1           2           3           4           5           6
    1  -0.0419352   0.0228206   0.0651500  -0.0079080  -0.0010112   0.0033716
    2  -0.0052392  -0.0027506   0.0022945   0.0025015  -0.0007348   0.0018201
    3  -0.0235029  -0.0858683   0.0216393   0.0061681   0.0029712  -0.0194198
            7
    1  -0.0404878
    2   0.0021086
    3   0.0980124
 Max gradient component =       9.801E-02
 RMS gradient           =       3.567E-02
 Gradient time:  CPU 2.66 s  wall 0.34 s
 Geometry Optimization Parameters
   NAtoms,    NIC,     NZ,  NCons,   NDum,   NFix, NCnnct, MaxDiis
        7      58       7       0       0       0       0       0


** GEOMETRY OPTIMIZATION IN DELOCALIZED INTERNAL COORDINATES **
   Searching for a Minimum

   Optimization Cycle:   1

                       Coordinates (Angstroms)
     ATOM                X               Y               Z
      1  C         0.0000000000    0.0000000000    0.0000000000
      2  C         0.0000000000    0.0000000000    1.4300000000
      3  O         1.1258330249    0.0000000000    2.0800000000
      4  H        -0.4328730755   -0.9282993062   -0.3728019562
      5  H        -0.5121324783    0.8870394727   -0.3728019562
      6  H        -0.9403756081    0.0822722052    1.9750000000
      7  H         1.1236085704    0.1018967679    0.7338528682
   Point Group: c1    Number of degrees of freedom:    15


   Energy is   -153.700314669


 Attempting to Generate Delocalized Internal Coordinates

 15 Hessian modes will be used to form the next step
  Hessian Eigenvalues:
     0.009411    0.026868    0.028382    0.067909    0.096670    0.104113
     0.162166    0.165479    0.181400    0.182659    0.331027    0.348126
     0.348126    0.348126    0.523021

 Minimum Search - Taking Simple RFO Step
 Searching for Lamda that Minimizes Along All modes
 Value Taken    Lamda =  -0.04337595
 Calculated Step too Large.  Step scaled by  0.646259
 Step Taken.  Stepsize is  0.300000

                             Maximum     Tolerance    Cnvgd?
         Gradient           0.053756      0.000300      NO
         Displacement       0.155607      0.001200      NO
         Energy change     *********      0.000001      NO


 New Cartesian Coordinates Obtained by Inverse Iteration

 Displacement from previous Coordinates is:  0.243475
 ----------------------------------------------------------------
             Standard Nuclear Orientation (Angstroms)
    I     Atom           X                Y                Z
 ----------------------------------------------------------------
    1      C       0.0135648596     0.0007734006     0.0107907304
    2      C      -0.0312996179     0.0029247453     1.4564546112
    3      O       1.0920969097    -0.0034137760     2.0525025983
    4      H      -0.3936494236    -0.9301412937    -0.3864076571
    5      H      -0.4863148896     0.8878845794    -0.3808856618
    6      H      -0.9536429893     0.0880492672     2.0514657188
    7      H       1.1233055844     0.0968322167     0.6693286160
 ----------------------------------------------------------------
 Nuclear Repulsion Energy =    71.3396160677 hartrees
 There are       12 alpha and       12 beta electrons
 Applying Cartesian multipole field
    Component          Value
    ---------          -----
     (2,0,0)        1.00000E-10
     (0,2,0)        2.00000E-10
     (0,0,2)       -3.00000E-11
 Requested basis set is 6-31G(d,p)
 There are 24 shells and 65 basis functions
 A cutoff of  1.0D-11 yielded    297 shell pairs
 There are      2231 function pairs
 Smallest overlap matrix eigenvalue = 5.36E-03
 Guess MOs from SCF MO coefficient file

 -----------------------------------------------------------------------
  General SCF calculation program by
  Eric Jon Sundstrom, Paul Horn, Yuezhi Mao, Dmitri Zuev, Alec White,
  David Stuck, Shaama M.S., Shane Yost, Joonho Lee, David Small,
  Daniel Levine, Susi Lehtola, Hugh Burton, Evgeny Epifanovsky
 -----------------------------------------------------------------------
 Exchange:     0.2000 Hartree-Fock + 0.0800 Slater + 0.7200 B88
 Correlation:  0.1900 VWN1RPA + 0.8100 LYP
 Using SG-1 standard quadrature grid
 using 8 threads for integral computing
 -------------------------------------------------------
 OpenMP Integral computing Module                
 Release: version 1.0, May 2013, Q-Chem Inc. Pittsburgh 
 -------------------------------------------------------
 -------------------------------------------------------
 OpenMP BLAS3 based DFT computing Module                
 Release: version 1.0, May 2013, Q-Chem Inc. Pittsburgh 
 -------------------------------------------------------
 A restricted SCF calculation will be
 performed using DIIS
 SCF converges when DIIS error is below 1.0e-08
 ---------------------------------------
  Cycle       Energy         DIIS error
 ---------------------------------------
    1    -153.7220696094      1.94e-03  
    2    -153.7257723181      3.63e-04  
    3    -153.7257822523      4.08e-04  
    4    -153.7258644027      1.21e-04  
    5    -153.7258693851      5.99e-05  
    6    -153.7258708356      1.11e-05  
    7    -153.7258708962      2.50e-06  
    8    -153.7258709002      5.03e-07  
    9    -153.7258709004      1.12e-07  
   10    -153.7258709004      2.18e-08  
   11    -153.7258709004      4.14e-09  Convergence criterion met
 ---------------------------------------
 SCF time:   CPU 4.55s  wall 1.00s 
 SCF   energy in the final basis set =     -153.7258709004
 Total energy in the final basis set =     -153.7258709004
 
 --------------------------------------------------------------
 
                    Orbital Energies (a.u.)
 --------------------------------------------------------------
 
 Alpha MOs
 -- Occupied --
-19.182 -10.308 -10.178  -1.076  -0.764  -0.595  -0.529  -0.457
 -0.440  -0.372  -0.309  -0.266
 -- Virtual --
 -0.060   0.105   0.127   0.153   0.171   0.246   0.300   0.519
  0.528   0.544   0.598   0.604   0.619   0.725   0.773   0.838
  0.843   0.907   0.933   0.952   1.067   1.214   1.332   1.395
  1.436   1.597   1.663   1.729   1.779   1.865   1.952   1.989
  2.012   2.030   2.076   2.289   2.332   2.440   2.509   2.544
  2.563   2.656   2.734   2.852   2.939   2.966   3.206   3.346
  3.428   3.479   3.802   4.344   4.498
 --------------------------------------------------------------
 
          Ground-State Mulliken Net Atomic Charges

     Atom                 Charge (a.u.)
  ----------------------------------------
      1 C                    -0.447028
      2 C                     0.272899
      3 O                    -0.396086
      4 H                     0.132153
      5 H                     0.125062
      6 H                     0.104474
      7 H                     0.208525
  ----------------------------------------
  Sum of atomic charges =    -0.000000

 -----------------------------------------------------------------
                    Cartesian Multipole Moments
 -----------------------------------------------------------------
    Charge (ESU x 10^10)
                 0.0000
    Dipole Moment (Debye)
         X      -2.1562      Y       0.0309      Z      -0.4275
       Tot       2.1984
    Quadrupole Moments (Debye-Ang)
        XX     -20.3535     XY       0.0312     YY     -17.5266
        XZ      -3.1471     YZ       0.1811     ZZ     -21.8198
    Octopole Moments (Debye-Ang^2)
       XXX     -18.2545    XXY       0.0968    XYY      -5.8790
       YYY      -0.5270    XXZ     -22.1525    XYZ       0.0328
       YYZ     -19.2471    XZZ     -14.4007    YZZ       0.0200
       ZZZ     -68.3324
    Hexadecapole Moments (Debye-Ang^3)
      XXXX     -69.8950   XXXY       0.2292   XXYY     -15.0195
      XYYY       0.1622   YYYY     -22.3911   XXXZ     -37.0603
      XXYZ       0.0736   XYYZ     -10.2439   YYYZ      -0.4665
      XXZZ     -57.3776   XYZZ      -0.0606   YYZZ     -42.3150
      XZZZ     -53.0716   YZZZ      -0.3047   ZZZZ    -263.3717
 -----------------------------------------------------------------
 Calculating analytic gradient of the SCF energy
 Gradient of SCF Energy
            1           2           3           4           5           6
    1  -0.0330905   0.0188673   0.0467606  -0.0069647  -0.0019873  -0.0001551
    2  -0.0065720  -0.0027414   0.0013715   0.0011290  -0.0001822   0.0032497
    3  -0.0286604  -0.0678094  -0.0056895   0.0056667   0.0045266  -0.0078162
            7
    1  -0.0234304
    2   0.0037454
    3   0.0997822
 Max gradient component =       9.978E-02
 RMS gradient           =       3.074E-02
 Gradient time:  CPU 2.48 s  wall 0.31 s
 Geometry Optimization Parameters
   NAtoms,    NIC,     NZ,  NCons,   NDum,   NFix, NCnnct, MaxDiis
        7      58       7       0       0       0       0       0

 Cartesian Hessian Update
 Hessian Updated using BFGS Update


** GEOMETRY OPTIMIZATION IN DELOCALIZED INTERNAL COORDINATES **
   Searching for a Minimum

   Optimization Cycle:   2

                       Coordinates (Angstroms)
     ATOM                X               Y               Z
      1  C         0.0135648596    0.0007734006    0.0107907304
      2  C        -0.0312996179    0.0029247453    1.4564546112
      3  O         1.0920969097   -0.0034137760    2.0525025983
      4  H        -0.3936494236   -0.9301412937   -0.3864076571
      5  H        -0.4863148896    0.8878845794   -0.3808856618
      6  H        -0.9536429893    0.0880492672    2.0514657188
      7  H         1.1233055844    0.0968322167    0.6693286160
   Point Group: c1    Number of degrees of freedom:    15


   Energy is   -153.725870900

 Hessian Updated using BFGS Update

 14 Hessian modes will be used to form the next step
  Hessian Eigenvalues:
     0.009295    0.022523    0.027604    0.049646    0.068013    0.097073
     0.108928    0.165757    0.179590    0.234816    0.329883    0.348117
     0.362738    0.547402

 Minimum Search - Taking Simple RFO Step
 Searching for Lamda that Minimizes Along All modes
 Value Taken    Lamda =  -0.06168561
 Calculated Step too Large.  Step scaled by  0.383521
 Step Taken.  Stepsize is  0.300000

                             Maximum     Tolerance    Cnvgd?
         Gradient           0.047632      0.000300      NO
         Displacement       0.181358      0.001200      NO
         Energy change     -0.025556      0.000001      NO


 New Cartesian Coordinates Obtained by Inverse Iteration

 Displacement from previous Coordinates is:  0.219801
 ----------------------------------------------------------------
             Standard Nuclear Orientation (Angstroms)
    I     Atom           X                Y                Z
 ----------------------------------------------------------------
    1      C       0.0296422387     0.0035950486     0.0193187184
    2      C      -0.0548807538     0.0040470116     1.4809514698
    3      O       1.0560025401    -0.0037585032     2.0436415463
    4      H      -0.3645698402    -0.9296844399    -0.3864895415
    5      H      -0.4592856352     0.8907678621    -0.3884918098
    6      H      -0.9591278040     0.0853411306     2.1094388873
    7      H       1.1162796877     0.0926010297     0.5948796853
 ----------------------------------------------------------------
 Nuclear Repulsion Energy =    71.6645247056 hartrees
 There are       12 alpha and       12 beta electrons
 Applying Cartesian multipole field
    Component          Value
    ---------          -----
     (2,0,0)        1.00000E-10
     (0,2,0)        2.00000E-10
     (0,0,2)       -3.00000E-11
 Nucleus-field energy     =    -0.0000000003 hartrees
 Requested basis set is 6-31G(d,p)
 There are 24 shells and 65 basis functions
 A cutoff of  1.0D-11 yielded    297 shell pairs
 There are      2231 function pairs
 Smallest overlap matrix eigenvalue = 5.08E-03
 Guess MOs from SCF MO coefficient file

 -----------------------------------------------------------------------
  General SCF calculation program by
  Eric Jon Sundstrom, Paul Horn, Yuezhi Mao, Dmitri Zuev, Alec White,
  David Stuck, Shaama M.S., Shane Yost, Joonho Lee, David Small,
  Daniel Levine, Susi Lehtola, Hugh Burton, Evgeny Epifanovsky
 -----------------------------------------------------------------------
 Exchange:     0.2000 Hartree-Fock + 0.0800 Slater + 0.7200 B88
 Correlation:  0.1900 VWN1RPA + 0.8100 LYP
 Using SG-1 standard quadrature grid
 using 8 threads for integral computing
 -------------------------------------------------------
 OpenMP Integral computing Module                
 Release: version 1.0, May 2013, Q-Chem Inc. Pittsburgh 
 -------------------------------------------------------
 -------------------------------------------------------
 OpenMP BLAS3 based DFT computing Module                
 Release: version 1.0, May 2013, Q-Chem Inc. Pittsburgh 
 -------------------------------------------------------
 A restricted SCF calculation will be
 performed using DIIS
 SCF converges when DIIS error is below 1.0e-08
 ---------------------------------------
  Cycle       Energy         DIIS error
 ---------------------------------------
    1    -153.7442902541      1.86e-03  
    2    -153.7476471453      6.11e-04  
    3    -153.7473849640      1.03e-03  
    4    -153.7478277318      1.81e-04  
    5    -153.7478415779      3.27e-05  
    6    -153.7478421366      9.16e-06  
    7    -153.7478421811      2.57e-06  
    8    -153.7478421850      4.71e-07  
    9    -153.7478421851      9.09e-08  
   10    -153.7478421851      1.56e-08  
   11    -153.7478421851      2.97e-09  Convergence criterion met
 ---------------------------------------
 SCF time:   CPU 4.59s  wall 1.00s 
 SCF   energy in the final basis set =     -153.7478421851
 Total energy in the final basis set =     -153.7478421851
 
 --------------------------------------------------------------
 
                    Orbital Energies (a.u.)
 --------------------------------------------------------------
 
 Alpha MOs
 -- Occupied --
-19.170 -10.298 -10.181  -1.074  -0.757  -0.593  -0.521  -0.456
 -0.435  -0.371  -0.308  -0.275
 -- Virtual --
 -0.048   0.110   0.125   0.154   0.168   0.248   0.302   0.520
  0.529   0.548   0.597   0.623   0.632   0.724   0.782   0.839
  0.844   0.903   0.941   0.960   1.071   1.211   1.331   1.424
  1.435   1.589   1.675   1.719   1.814   1.871   1.965   1.975
  2.008   2.055   2.070   2.295   2.340   2.421   2.521   2.555
  2.590   2.656   2.729   2.878   2.954   3.013   3.199   3.341
  3.413   3.456   3.822   4.291   4.504
 --------------------------------------------------------------
 
          Ground-State Mulliken Net Atomic Charges

     Atom                 Charge (a.u.)
  ----------------------------------------
      1 C                    -0.435731
      2 C                     0.279262
      3 O                    -0.394490
      4 H                     0.130833
      5 H                     0.124110
      6 H                     0.098726
      7 H                     0.197291
  ----------------------------------------
  Sum of atomic charges =     0.000000

 -----------------------------------------------------------------
                    Cartesian Multipole Moments
 -----------------------------------------------------------------
    Charge (ESU x 10^10)
                 0.0000
    Dipole Moment (Debye)
         X      -2.1295      Y       0.0297      Z      -0.6033
       Tot       2.2135
    Quadrupole Moments (Debye-Ang)
        XX     -20.2747     XY       0.0222     YY     -17.4843
        XZ      -3.4040     YZ       0.1730     ZZ     -21.8355
    Octopole Moments (Debye-Ang^2)
       XXX     -17.4026    XXY       0.0665    XYY      -5.5719
       YYY      -0.5580    XXZ     -22.3192    XYZ       0.0242
       YYZ     -19.3046    XZZ     -14.4854    YZZ       0.0431
       ZZZ     -68.4340
    Hexadecapole Moments (Debye-Ang^3)
      XXXX     -66.9323   XXXY       0.2514   XXYY     -14.5438
      XYYY       0.1792   YYYY     -22.3410   XXXZ     -34.7592
      XXYZ       0.0516   XYYZ      -9.4873   YYYZ      -0.4483
      XXZZ     -57.0907   XYZZ      -0.0852   YYZZ     -42.4592
      XZZZ     -51.7018   YZZZ      -0.1609   ZZZZ    -264.0668
 -----------------------------------------------------------------
 Calculating analytic gradient of the SCF energy
 Gradient of SCF Energy
            1           2           3           4           5           6
    1  -0.0230561   0.0194359   0.0235174  -0.0066677  -0.0031423   0.0016542
    2  -0.0066452  -0.0036087   0.0015845   0.0003431   0.0004394   0.0037826
    3  -0.0311860  -0.0500801  -0.0284643   0.0062855   0.0054240  -0.0001545
            7
    1  -0.0117414
    2   0.0041043
    3   0.0981753
 Max gradient component =       9.818E-02
 RMS gradient           =       2.738E-02
 Gradient time:  CPU 2.51 s  wall 0.32 s
 Geometry Optimization Parameters
   NAtoms,    NIC,     NZ,  NCons,   NDum,   NFix, NCnnct, MaxDiis
        7      58       7       0       0       0       0       0

 Cartesian Hessian Update
 Hessian Updated using BFGS Update


** GEOMETRY OPTIMIZATION IN DELOCALIZED INTERNAL COORDINATES **
   Searching for a Minimum

   Optimization Cycle:   3

                       Coordinates (Angstroms)
     ATOM                X               Y               Z
      1  C         0.0296422387    0.0035950486    0.0193187184
      2  C        -0.0548807538    0.0040470116    1.4809514698
      3  O         1.0560025401   -0.0037585032    2.0436415463
      4  H        -0.3645698402   -0.9296844399   -0.3864895415
      5  H        -0.4592856352    0.8907678621   -0.3884918098
      6  H        -0.9591278040    0.0853411306    2.1094388873
      7  H         1.1162796877    0.0926010297    0.5948796853
   Point Group: c1    Number of degrees of freedom:    15


   Energy is   -153.747842185

 Hessian Updated using BFGS Update

 15 Hessian modes will be used to form the next step
  Hessian Eigenvalues:
     0.009401    0.020397    0.027584    0.040511    0.068085    0.097037
     0.107503    0.165783    0.179436    0.257244    0.330042    0.348126
     0.348171    0.363709    0.704042

 Minimum Search - Taking Simple RFO Step
 Searching for Lamda that Minimizes Along All modes
 Value Taken    Lamda =  -0.05479622
 Calculated Step too Large.  Step scaled by  0.368003
 Step Taken.  Stepsize is  0.300000

                             Maximum     Tolerance    Cnvgd?
         Gradient           0.042645      0.000300      NO
         Displacement       0.190803      0.001200      NO
         Energy change     -0.021971      0.000001      NO


 New Cartesian Coordinates Obtained by Inverse Iteration

 Displacement from previous Coordinates is:  0.205166
 ----------------------------------------------------------------
             Standard Nuclear Orientation (Angstroms)
    I     Atom           X                Y                Z
 ----------------------------------------------------------------
    1      C       0.0433529909     0.0062498262     0.0271652242
    2      C      -0.0731949642     0.0059100068     1.5058418180
    3      O       1.0277462280    -0.0046858003     2.0477329158
    4      H      -0.3379063232    -0.9290680695    -0.3873636857
    5      H      -0.4344608650     0.8931842828    -0.3952650956
    6      H      -0.9653004885     0.0827052881     2.1570351431
    7      H       1.1038238554     0.0886136054     0.5181026360
 ----------------------------------------------------------------
 Nuclear Repulsion Energy =    71.7745164779 hartrees
 There are       12 alpha and       12 beta electrons
 Applying Cartesian multipole field
    Component          Value
    ---------          -----
     (2,0,0)        1.00000E-10
     (0,2,0)        2.00000E-10
     (0,0,2)       -3.00000E-11
 Nucleus-field energy     =    -0.0000000005 hartrees
 Requested basis set is 6-31G(d,p)
 There are 24 shells and 65 basis functions
 A cutoff of  1.0D-11 yielded    297 shell pairs
 There are      2231 function pairs
 Smallest overlap matrix eigenvalue = 4.93E-03
 Guess MOs from SCF MO coefficient file

 -----------------------------------------------------------------------
  General SCF calculation program by
  Eric Jon Sundstrom, Paul Horn, Yuezhi Mao, Dmitri Zuev, Alec White,
  David Stuck, Shaama M.S., Shane Yost, Joonho Lee, David Small,
  Daniel Levine, Susi Lehtola, Hugh Burton, Evgeny Epifanovsky
 -----------------------------------------------------------------------
 Exchange:     0.2000 Hartree-Fock + 0.0800 Slater + 0.7200 B88
 Correlation:  0.1900 VWN1RPA + 0.8100 LYP
 Using SG-1 standard quadrature grid
 using 8 threads for integral computing
 -------------------------------------------------------
 OpenMP Integral computing Module                
 Release: version 1.0, May 2013, Q-Chem Inc. Pittsburgh 
 -------------------------------------------------------
 -------------------------------------------------------
 OpenMP BLAS3 based DFT computing Module                
 Release: version 1.0, May 2013, Q-Chem Inc. Pittsburgh 
 -------------------------------------------------------
 A restricted SCF calculation will be
 performed using DIIS
 SCF converges when DIIS error is below 1.0e-08
 ---------------------------------------
  Cycle       Energy         DIIS error
 ---------------------------------------
    1    -153.7635528250      1.70e-03  
    2    -153.7661584437      7.10e-04  
    3    -153.7659370731      1.04e-03  
    4    -153.7663850749      1.79e-04  
    5    -153.7663990174      3.11e-05  
    6    -153.7663995189      6.48e-06  
    7    -153.7663995416      2.07e-06  
    8    -153.7663995439      4.24e-07  
    9    -153.7663995440      6.77e-08  
   10    -153.7663995440      1.02e-08  
   11    -153.7663995440      2.14e-09  Convergence criterion met
 ---------------------------------------
 SCF time:   CPU 4.59s  wall 1.00s 
 SCF   energy in the final basis set =     -153.7663995440
 Total energy in the final basis set =     -153.7663995440
 
 --------------------------------------------------------------
 
                    Orbital Energies (a.u.)
 --------------------------------------------------------------
 
 Alpha MOs
 -- Occupied --
-19.161 -10.291 -10.184  -1.071  -0.752  -0.590  -0.514  -0.454
 -0.431  -0.370  -0.323  -0.271
 -- Virtual --
 -0.039   0.114   0.123   0.158   0.167   0.246   0.301   0.521
  0.527   0.547   0.596   0.643   0.652   0.726   0.796   0.841
  0.846   0.901   0.950   0.966   1.075   1.210   1.329   1.413
  1.448   1.579   1.691   1.728   1.843   1.881   1.956   1.979
  2.008   2.043   2.097   2.295   2.342   2.409   2.525   2.550
  2.634   2.670   2.723   2.897   2.962   3.030   3.207   3.344
  3.395   3.453   3.839   4.247   4.516
 --------------------------------------------------------------
 
          Ground-State Mulliken Net Atomic Charges

     Atom                 Charge (a.u.)
  ----------------------------------------
      1 C                    -0.424350
      2 C                     0.281612
      3 O                    -0.392380
      4 H                     0.130498
      5 H                     0.123944
      6 H                     0.093149
      7 H                     0.187527
  ----------------------------------------
  Sum of atomic charges =     0.000000

 -----------------------------------------------------------------
                    Cartesian Multipole Moments
 -----------------------------------------------------------------
    Charge (ESU x 10^10)
                 0.0000
    Dipole Moment (Debye)
         X      -2.0953      Y       0.0307      Z      -0.7886
       Tot       2.2390
    Quadrupole Moments (Debye-Ang)
        XX     -20.1939     XY       0.0207     YY     -17.4411
        XZ      -3.6317     YZ       0.1646     ZZ     -21.9340
    Octopole Moments (Debye-Ang^2)
       XXX     -16.7127    XXY       0.0395    XYY      -5.3163
       YYY      -0.5886    XXZ     -22.6110    XYZ       0.0249
       YYZ     -19.4521    XZZ     -14.5937    YZZ       0.0534
       ZZZ     -68.9554
    Hexadecapole Moments (Debye-Ang^3)
      XXXX     -64.5661   XXXY       0.2946   XXYY     -14.1545
      XYYY       0.2135   YYYY     -22.2816   XXXZ     -33.0963
      XXYZ       0.0319   XYYZ      -8.9214   YYYZ      -0.4338
      XXZZ     -57.3190   XYZZ      -0.0738   YYZZ     -42.9251
      XZZZ     -50.8118   YZZZ      -0.0610   ZZZZ    -267.1288
 -----------------------------------------------------------------
 Calculating analytic gradient of the SCF energy
 Gradient of SCF Energy
            1           2           3           4           5           6
    1  -0.0091312   0.0194002   0.0053622  -0.0063544  -0.0036495   0.0034596
    2  -0.0057137  -0.0038208   0.0019227  -0.0004117   0.0009192   0.0036229
    3  -0.0310304  -0.0341128  -0.0422650   0.0064118   0.0058043   0.0055626
            7
    1  -0.0090868
    2   0.0034815
    3   0.0896295
 Max gradient component =       8.963E-02
 RMS gradient           =       2.466E-02
 Gradient time:  CPU 2.51 s  wall 0.32 s
 Geometry Optimization Parameters
   NAtoms,    NIC,     NZ,  NCons,   NDum,   NFix, NCnnct, MaxDiis
        7      58       7       0       0       0       0       0

 Cartesian Hessian Update
 Hessian Updated using BFGS Update


** GEOMETRY OPTIMIZATION IN DELOCALIZED INTERNAL COORDINATES **
   Searching for a Minimum

   Optimization Cycle:   4

                       Coordinates (Angstroms)
     ATOM                X               Y               Z
      1  C         0.0433529909    0.0062498262    0.0271652242
      2  C        -0.0731949642    0.0059100068    1.5058418180
      3  O         1.0277462280   -0.0046858003    2.0477329158
      4  H        -0.3379063232   -0.9290680695   -0.3873636857
      5  H        -0.4344608650    0.8931842828   -0.3952650956
      6  H        -0.9653004885    0.0827052881    2.1570351431
      7  H         1.1038238554    0.0886136054    0.5181026360
   Point Group: c1    Number of degrees of freedom:    15


   Energy is   -153.766399544

 Hessian Updated using BFGS Update

 15 Hessian modes will be used to form the next step
  Hessian Eigenvalues:
     0.009436    0.022745    0.027690    0.041826    0.068100    0.097028
     0.107126    0.171414    0.179632    0.263300    0.330503    0.348136
     0.348183    0.363919    0.821878

 Minimum Search - Taking Simple RFO Step
 Searching for Lamda that Minimizes Along All modes
 Value Taken    Lamda =  -0.04326539
 Calculated Step too Large.  Step scaled by  0.393876
 Step Taken.  Stepsize is  0.300000

                             Maximum     Tolerance    Cnvgd?
         Gradient           0.034741      0.000300      NO
         Displacement       0.191095      0.001200      NO
         Energy change     -0.018557      0.000001      NO


 New Cartesian Coordinates Obtained by Inverse Iteration

 Displacement from previous Coordinates is:  0.188863
 ----------------------------------------------------------------
             Standard Nuclear Orientation (Angstroms)
    I     Atom           X                Y                Z
 ----------------------------------------------------------------
    1      C       0.0520068759     0.0084796460     0.0354106693
    2      C      -0.0868948412     0.0082882239     1.5310524833
    3      O       1.0072193677    -0.0063838617     2.0623965375
    4      H      -0.3137754819    -0.9278616869    -0.3908215903
    5      H      -0.4145194891     0.8945764869    -0.4015364317
    6      H      -0.9734190205     0.0813523837     2.1944441818
    7      H       1.0934430223     0.0844579476     0.4423031058
 ----------------------------------------------------------------
 Nuclear Repulsion Energy =    71.6745542749 hartrees
 There are       12 alpha and       12 beta electrons
 Applying Cartesian multipole field
    Component          Value
    ---------          -----
     (2,0,0)        1.00000E-10
     (0,2,0)        2.00000E-10
     (0,0,2)       -3.00000E-11
 Nucleus-field energy     =    -0.0000000007 hartrees
 Requested basis set is 6-31G(d,p)
 There are 24 shells and 65 basis functions
 A cutoff of  1.0D-11 yielded    297 shell pairs
 There are      2231 function pairs
 Smallest overlap matrix eigenvalue = 4.89E-03
 Guess MOs from SCF MO coefficient file

 -----------------------------------------------------------------------
  General SCF calculation program by
  Eric Jon Sundstrom, Paul Horn, Yuezhi Mao, Dmitri Zuev, Alec White,
  David Stuck, Shaama M.S., Shane Yost, Joonho Lee, David Small,
  Daniel Levine, Susi Lehtola, Hugh Burton, Evgeny Epifanovsky
 -----------------------------------------------------------------------
 Exchange:     0.2000 Hartree-Fock + 0.0800 Slater + 0.7200 B88
 Correlation:  0.1900 VWN1RPA + 0.8100 LYP
 Using SG-1 standard quadrature grid
 using 8 threads for integral computing
 -------------------------------------------------------
 OpenMP Integral computing Module                
 Release: version 1.0, May 2013, Q-Chem Inc. Pittsburgh 
 -------------------------------------------------------
 -------------------------------------------------------
 OpenMP BLAS3 based DFT computing Module                
 Release: version 1.0, May 2013, Q-Chem Inc. Pittsburgh 
 -------------------------------------------------------
 A restricted SCF calculation will be
 performed using DIIS
 SCF converges when DIIS error is below 1.0e-08
 ---------------------------------------
  Cycle       Energy         DIIS error
 ---------------------------------------
    1    -153.7797163753      1.45e-03  
    2    -153.7814620821      6.31e-04  
    3    -153.7813469068      8.46e-04  
    4    -153.7816384431      1.67e-04  
    5    -153.7816505624      2.74e-05  
    6    -153.7816509393      3.72e-06  
    7    -153.7816509472      1.30e-06  
    8    -153.7816509481      3.15e-07  
    9    -153.7816509482      5.15e-08  
   10    -153.7816509482      8.04e-09  Convergence criterion met
 ---------------------------------------
 SCF time:   CPU 4.15s  wall 1.00s 
 SCF   energy in the final basis set =     -153.7816509482
 Total energy in the final basis set =     -153.7816509482
 
 --------------------------------------------------------------
 
                    Orbital Energies (a.u.)
 --------------------------------------------------------------
 
 Alpha MOs
 -- Occupied --
-19.154 -10.286 -10.185  -1.066  -0.748  -0.588  -0.507  -0.452
 -0.427  -0.370  -0.341  -0.264
 -- Virtual --
 -0.032   0.117   0.122   0.160   0.168   0.243   0.299   0.521
  0.527   0.543   0.596   0.654   0.671   0.731   0.812   0.842
  0.848   0.900   0.956   0.971   1.077   1.209   1.326   1.387
  1.464   1.577   1.699   1.737   1.862   1.902   1.949   1.987
  2.009   2.033   2.115   2.293   2.339   2.403   2.506   2.562
  2.659   2.684   2.734   2.904   2.964   3.012   3.232   3.369
  3.383   3.450   3.851   4.213   4.529
 --------------------------------------------------------------
 
          Ground-State Mulliken Net Atomic Charges

     Atom                 Charge (a.u.)
  ----------------------------------------
      1 C                    -0.414847
      2 C                     0.281830
      3 O                    -0.389510
      4 H                     0.130471
      5 H                     0.123967
      6 H                     0.088670
      7 H                     0.179419
  ----------------------------------------
  Sum of atomic charges =    -0.000000

 -----------------------------------------------------------------
                    Cartesian Multipole Moments
 -----------------------------------------------------------------
    Charge (ESU x 10^10)
                 0.0000
    Dipole Moment (Debye)
         X      -2.0522      Y       0.0339      Z      -0.9480
       Tot       2.2608
    Quadrupole Moments (Debye-Ang)
        XX     -20.1085     XY       0.0190     YY     -17.4130
        XZ      -3.8231     YZ       0.1624     ZZ     -22.0425
    Octopole Moments (Debye-Ang^2)
       XXX     -16.1294    XXY       0.0228    XYY      -5.1038
       YYY      -0.6124    XXZ     -22.9503    XYZ       0.0318
       YYZ     -19.6723    XZZ     -14.7095    YZZ       0.0634
       ZZZ     -69.7627
    Hexadecapole Moments (Debye-Ang^3)
      XXXX     -62.7920   XXXY       0.3599   XXYY     -13.8730
      XYYY       0.2649   YYYY     -22.2385   XXXZ     -31.9965
      XXYZ       0.0212   XYYZ      -8.5374   YYYZ      -0.4167
      XXZZ     -57.9174   XYZZ      -0.0374   YYZZ     -43.6370
      XZZZ     -50.3742   YZZZ       0.0261   ZZZZ    -272.0397
 -----------------------------------------------------------------
 Calculating analytic gradient of the SCF energy
 Gradient of SCF Energy
            1           2           3           4           5           6
    1   0.0071549   0.0164815  -0.0054889  -0.0052834  -0.0034168   0.0046653
    2  -0.0043220  -0.0035258   0.0020930  -0.0009262   0.0012989   0.0031946
    3  -0.0287469  -0.0201466  -0.0469861   0.0058390   0.0055917   0.0094392
            7
    1  -0.0141126
    2   0.0021874
    3   0.0750096
 Max gradient component =       7.501E-02
 RMS gradient           =       2.170E-02
 Gradient time:  CPU 2.53 s  wall 0.32 s
 Geometry Optimization Parameters
   NAtoms,    NIC,     NZ,  NCons,   NDum,   NFix, NCnnct, MaxDiis
        7      58       7       0       0       0       0       0

 Cartesian Hessian Update
 Hessian Updated using BFGS Update


** GEOMETRY OPTIMIZATION IN DELOCALIZED INTERNAL COORDINATES **
   Searching for a Minimum

   Optimization Cycle:   5

                       Coordinates (Angstroms)
     ATOM                X               Y               Z
      1  C         0.0520068759    0.0084796460    0.0354106693
      2  C        -0.0868948412    0.0082882239    1.5310524833
      3  O         1.0072193677   -0.0063838617    2.0623965375
      4  H        -0.3137754819   -0.9278616869   -0.3908215903
      5  H        -0.4145194891    0.8945764869   -0.4015364317
      6  H        -0.9734190205    0.0813523837    2.1944441818
      7  H         1.0934430223    0.0844579476    0.4423031058
   Point Group: c1    Number of degrees of freedom:    15


   Energy is   -153.781650948

 Hessian Updated using BFGS Update

 15 Hessian modes will be used to form the next step
  Hessian Eigenvalues:
     0.009438    0.025093    0.027754    0.042158    0.068123    0.097044
     0.107119    0.178210    0.194975    0.268982    0.332423    0.348136
     0.348186    0.364412    0.867597

 Minimum Search - Taking Simple RFO Step
 Searching for Lamda that Minimizes Along All modes
 Value Taken    Lamda =  -0.03214793
 Calculated Step too Large.  Step scaled by  0.433998
 Step Taken.  Stepsize is  0.300000

                             Maximum     Tolerance    Cnvgd?
         Gradient           0.032617      0.000300      NO
         Displacement       0.182165      0.001200      NO
         Energy change     -0.015251      0.000001      NO


 New Cartesian Coordinates Obtained by Inverse Iteration

 Displacement from previous Coordinates is:  0.169597
 ----------------------------------------------------------------
             Standard Nuclear Orientation (Angstroms)
    I     Atom           X                Y                Z
 ----------------------------------------------------------------
    1      C       0.0542910330     0.0103548543     0.0448685764
    2      C      -0.0950889813     0.0108855408     1.5551927033
    3      O       0.9919892556    -0.0083516642     2.0860535484
    4      H      -0.2958837506    -0.9255048291    -0.3952463133
    5      H      -0.4021736121     0.8944429784    -0.4065912935
    6      H      -0.9836362281     0.0805128114     2.2191270287
    7      H       1.0945627170     0.0805694479     0.3698447058
 ----------------------------------------------------------------
 Nuclear Repulsion Energy =    71.4231228178 hartrees
 There are       12 alpha and       12 beta electrons
 Applying Cartesian multipole field
    Component          Value
    ---------          -----
     (2,0,0)        1.00000E-10
     (0,2,0)        2.00000E-10
     (0,0,2)       -3.00000E-11
 Nucleus-field energy     =    -0.0000000010 hartrees
 Requested basis set is 6-31G(d,p)
 There are 24 shells and 65 basis functions
 A cutoff of  1.0D-11 yielded    297 shell pairs
 There are      2231 function pairs
 Smallest overlap matrix eigenvalue = 4.93E-03
 Guess MOs from SCF MO coefficient file

 -----------------------------------------------------------------------
  General SCF calculation program by
  Eric Jon Sundstrom, Paul Horn, Yuezhi Mao, Dmitri Zuev, Alec White,
  David Stuck, Shaama M.S., Shane Yost, Joonho Lee, David Small,
  Daniel Levine, Susi Lehtola, Hugh Burton, Evgeny Epifanovsky
 -----------------------------------------------------------------------
 Exchange:     0.2000 Hartree-Fock + 0.0800 Slater + 0.7200 B88
 Correlation:  0.1900 VWN1RPA + 0.8100 LYP
 Using SG-1 standard quadrature grid
 using 8 threads for integral computing
 -------------------------------------------------------
 OpenMP Integral computing Module                
 Release: version 1.0, May 2013, Q-Chem Inc. Pittsburgh 
 -------------------------------------------------------
 -------------------------------------------------------
 OpenMP BLAS3 based DFT computing Module                
 Release: version 1.0, May 2013, Q-Chem Inc. Pittsburgh 
 -------------------------------------------------------
 A restricted SCF calculation will be
 performed using DIIS
 SCF converges when DIIS error is below 1.0e-08
 ---------------------------------------
  Cycle       Energy         DIIS error
 ---------------------------------------
    1    -153.7928946847      1.16e-03  
    2    -153.7939416115      4.10e-04  
    3    -153.7938866928      5.66e-04  
    4    -153.7940177895      1.23e-04  
    5    -153.7940241746      2.30e-05  
    6    -153.7940244293      1.76e-06  
    7    -153.7940244313      3.99e-07  
    8    -153.7940244314      9.78e-08  
    9    -153.7940244314      2.73e-08  
   10    -153.7940244314      7.39e-09  Convergence criterion met
 ---------------------------------------
 SCF time:   CPU 4.16s  wall 0.00s 
 SCF   energy in the final basis set =     -153.7940244314
 Total energy in the final basis set =     -153.7940244314
 
 --------------------------------------------------------------
 
                    Orbital Energies (a.u.)
 --------------------------------------------------------------
 
 Alpha MOs
 -- Occupied --
-19.151 -10.283 -10.187  -1.063  -0.745  -0.585  -0.501  -0.450
 -0.424  -0.370  -0.355  -0.260
 -- Virtual --
 -0.028   0.118   0.121   0.162   0.168   0.239   0.296   0.521
  0.528   0.543   0.598   0.661   0.683   0.736   0.824   0.842
  0.849   0.901   0.954   0.974   1.078   1.209   1.321   1.371
  1.474   1.579   1.699   1.739   1.872   1.924   1.954   1.990
  2.010   2.027   2.124   2.288   2.334   2.393   2.492   2.572
  2.654   2.677   2.770   2.898   2.962   2.984   3.244   3.373
  3.405   3.443   3.855   4.190   4.538
 --------------------------------------------------------------
 
          Ground-State Mulliken Net Atomic Charges

     Atom                 Charge (a.u.)
  ----------------------------------------
      1 C                    -0.408497
      2 C                     0.282055
      3 O                    -0.385739
      4 H                     0.130554
      5 H                     0.124207
      6 H                     0.085121
      7 H                     0.172299
  ----------------------------------------
  Sum of atomic charges =    -0.000000

 -----------------------------------------------------------------
                    Cartesian Multipole Moments
 -----------------------------------------------------------------
    Charge (ESU x 10^10)
                 0.0000
    Dipole Moment (Debye)
         X      -2.0011      Y       0.0381      Z      -1.0753
       Tot       2.2720
    Quadrupole Moments (Debye-Ang)
        XX     -20.0179     XY       0.0157     YY     -17.4106
        XZ      -3.9654     YZ       0.1640     ZZ     -22.1661
    Octopole Moments (Debye-Ang^2)
       XXX     -15.6190    XXY       0.0125    XYY      -4.9340
       YYY      -0.6335    XXZ     -23.2934    XYZ       0.0426
       YYZ     -19.9383    XZZ     -14.8049    YZZ       0.0719
       ZZZ     -70.8471
    Hexadecapole Moments (Debye-Ang^3)
      XXXX     -61.5444   XXXY       0.4275   XXYY     -13.6971
      XYYY       0.3144   YYYY     -22.2235   XXXZ     -31.3654
      XXYZ       0.0162   XYYZ      -8.3128   YYYZ      -0.4021
      XXZZ     -58.7736   XYZZ       0.0094   YYZZ     -44.5090
      XZZZ     -50.2969   YZZZ       0.0972   ZZZZ    -278.4995
 -----------------------------------------------------------------
 Calculating analytic gradient of the SCF energy
 Gradient of SCF Energy
            1           2           3           4           5           6
    1   0.0171435   0.0130611  -0.0116150  -0.0034847  -0.0025812   0.0052381
    2  -0.0030860  -0.0029835   0.0020634  -0.0011175   0.0014735   0.0026973
    3  -0.0269211  -0.0079404  -0.0457422   0.0046681   0.0048109   0.0115971
            7
    1  -0.0177617
    2   0.0009527
    3   0.0595275
 Max gradient component =       5.953E-02
 RMS gradient           =       1.902E-02
 Gradient time:  CPU 2.50 s  wall 0.31 s
 Geometry Optimization Parameters
   NAtoms,    NIC,     NZ,  NCons,   NDum,   NFix, NCnnct, MaxDiis
        7      58       7       0       0       0       0       0

 Cartesian Hessian Update
 Hessian Updated using BFGS Update


** GEOMETRY OPTIMIZATION IN DELOCALIZED INTERNAL COORDINATES **
   Searching for a Minimum

   Optimization Cycle:   6

                       Coordinates (Angstroms)
     ATOM                X               Y               Z
      1  C         0.0542910330    0.0103548543    0.0448685764
      2  C        -0.0950889813    0.0108855408    1.5551927033
      3  O         0.9919892556   -0.0083516642    2.0860535484
      4  H        -0.2958837506   -0.9255048291   -0.3952463133
      5  H        -0.4021736121    0.8944429784   -0.4065912935
      6  H        -0.9836362281    0.0805128114    2.2191270287
      7  H         1.0945627170    0.0805694479    0.3698447058
   Point Group: c1    Number of degrees of freedom:    15


   Energy is   -153.794024431

 Hessian Updated using BFGS Update

 15 Hessian modes will be used to form the next step
  Hessian Eigenvalues:
     0.009439    0.026455    0.027693    0.036414    0.068110    0.097042
     0.107145    0.178604    0.211627    0.273047    0.338520    0.348143
     0.348186    0.365503    0.869034

 Minimum Search - Taking Simple RFO Step
 Searching for Lamda that Minimizes Along All modes
 Value Taken    Lamda =  -0.02558034
 Calculated Step too Large.  Step scaled by  0.454775
 Step Taken.  Stepsize is  0.300000

                             Maximum     Tolerance    Cnvgd?
         Gradient           0.028157      0.000300      NO
         Displacement       0.170944      0.001200      NO
         Energy change     -0.012373      0.000001      NO


 New Cartesian Coordinates Obtained by Inverse Iteration

 Displacement from previous Coordinates is:  0.158203
 ----------------------------------------------------------------
             Standard Nuclear Orientation (Angstroms)
    I     Atom           X                Y                Z
 ----------------------------------------------------------------
    1      C       0.0538778362     0.0122134956     0.0565217547
    2      C      -0.0982812926     0.0133389645     1.5756466889
    3      O       0.9806986265    -0.0102623882     2.1150528162
    4      H      -0.2862262506    -0.9220212156    -0.3952299768
    5      H      -0.3969702006     0.8929868403    -0.4070811870
    6      H      -0.9965283795     0.0790147336     2.2284677443
    7      H       1.1074900941     0.0776387094     0.2998711154
 ----------------------------------------------------------------
 Nuclear Repulsion Energy =    71.1178370188 hartrees
 There are       12 alpha and       12 beta electrons
 Applying Cartesian multipole field
    Component          Value
    ---------          -----
     (2,0,0)        1.00000E-10
     (0,2,0)        2.00000E-10
     (0,0,2)       -3.00000E-11
 Nucleus-field energy     =    -0.0000000012 hartrees
 Requested basis set is 6-31G(d,p)
 There are 24 shells and 65 basis functions
 A cutoff of  1.0D-11 yielded    297 shell pairs
 There are      2231 function pairs
 Smallest overlap matrix eigenvalue = 5.00E-03
 Guess MOs from SCF MO coefficient file

 -----------------------------------------------------------------------
  General SCF calculation program by
  Eric Jon Sundstrom, Paul Horn, Yuezhi Mao, Dmitri Zuev, Alec White,
  David Stuck, Shaama M.S., Shane Yost, Joonho Lee, David Small,
  Daniel Levine, Susi Lehtola, Hugh Burton, Evgeny Epifanovsky
 -----------------------------------------------------------------------
 Exchange:     0.2000 Hartree-Fock + 0.0800 Slater + 0.7200 B88
 Correlation:  0.1900 VWN1RPA + 0.8100 LYP
 Using SG-1 standard quadrature grid
 using 8 threads for integral computing
 -------------------------------------------------------
 OpenMP Integral computing Module                
 Release: version 1.0, May 2013, Q-Chem Inc. Pittsburgh 
 -------------------------------------------------------
 -------------------------------------------------------
 OpenMP BLAS3 based DFT computing Module                
 Release: version 1.0, May 2013, Q-Chem Inc. Pittsburgh 
 -------------------------------------------------------
 A restricted SCF calculation will be
 performed using DIIS
 SCF converges when DIIS error is below 1.0e-08
 ---------------------------------------
  Cycle       Energy         DIIS error
 ---------------------------------------
    1    -153.8036195330      9.86e-04  
    2    -153.8043586198      2.49e-04  
    3    -153.8043360277      3.55e-04  
    4    -153.8043875689      8.67e-05  
    5    -153.8043905639      1.96e-05  
    6    -153.8043907444      1.84e-06  
    7    -153.8043907459      8.06e-07  
    8    -153.8043907463      9.88e-08  
    9    -153.8043907463      2.06e-08  
   10    -153.8043907463      3.59e-09  Convergence criterion met
 ---------------------------------------
 SCF time:   CPU 4.17s  wall 0.00s 
 SCF   energy in the final basis set =     -153.8043907463
 Total energy in the final basis set =     -153.8043907463
 
 --------------------------------------------------------------
 
                    Orbital Energies (a.u.)
 --------------------------------------------------------------
 
 Alpha MOs
 -- Occupied --
-19.149 -10.282 -10.188  -1.060  -0.742  -0.584  -0.495  -0.448
 -0.423  -0.372  -0.364  -0.257
 -- Virtual --
 -0.026   0.119   0.121   0.162   0.166   0.237   0.295   0.521
  0.527   0.548   0.599   0.667   0.690   0.740   0.830   0.842
  0.850   0.902   0.943   0.977   1.082   1.209   1.318   1.369
  1.478   1.579   1.696   1.738   1.876   1.935   1.968   1.991
  2.009   2.023   2.126   2.280   2.328   2.374   2.495   2.577
  2.638   2.658   2.799   2.887   2.951   2.973   3.242   3.365
  3.422   3.441   3.851   4.178   4.544
 --------------------------------------------------------------
 
          Ground-State Mulliken Net Atomic Charges

     Atom                 Charge (a.u.)
  ----------------------------------------
      1 C                    -0.404666
      2 C                     0.283317
      3 O                    -0.382404
      4 H                     0.130741
      5 H                     0.124622
      6 H                     0.082333
      7 H                     0.166058
  ----------------------------------------
  Sum of atomic charges =    -0.000000

 -----------------------------------------------------------------
                    Cartesian Multipole Moments
 -----------------------------------------------------------------
    Charge (ESU x 10^10)
                 0.0000
    Dipole Moment (Debye)
         X      -1.9548      Y       0.0420      Z      -1.1847
       Tot       2.2862
    Quadrupole Moments (Debye-Ang)
        XX     -19.9237     XY       0.0135     YY     -17.4296
        XZ      -4.0782     YZ       0.1654     ZZ     -22.3432
    Octopole Moments (Debye-Ang^2)
       XXX     -15.2261    XXY       0.0044    XYY      -4.8197
       YYY      -0.6558    XXZ     -23.6295    XYZ       0.0548
       YYZ     -20.2162    XZZ     -14.9035    YZZ       0.0784
       ZZZ     -72.2014
    Hexadecapole Moments (Debye-Ang^3)
      XXXX     -60.7507   XXXY       0.4823   XXYY     -13.6081
      XYYY       0.3511   YYYY     -22.2325   XXXZ     -31.1172
      XXYZ       0.0169   XYYZ      -8.2133   YYYZ      -0.3826
      XXZZ     -59.7476   XYZZ       0.0576   YYZZ     -45.4204
      XZZZ     -50.4998   YZZZ       0.1612   ZZZZ    -285.8776
 -----------------------------------------------------------------
 Calculating analytic gradient of the SCF energy
 Gradient of SCF Energy
            1           2           3           4           5           6
    1   0.0176274   0.0091747  -0.0139100  -0.0015685  -0.0015093   0.0051425
    2  -0.0023337  -0.0024220   0.0019201  -0.0010782   0.0014526   0.0022185
    3  -0.0254596   0.0010674  -0.0419815   0.0034361   0.0038633   0.0123337
            7
    1  -0.0149568
    2   0.0002428
    3   0.0467406
 Max gradient component =       4.674E-02
 RMS gradient           =       1.639E-02
 Gradient time:  CPU 2.50 s  wall 0.31 s
 Geometry Optimization Parameters
   NAtoms,    NIC,     NZ,  NCons,   NDum,   NFix, NCnnct, MaxDiis
        7      58       7       0       0       0       0       0

 Cartesian Hessian Update
 Hessian Updated using BFGS Update


** GEOMETRY OPTIMIZATION IN DELOCALIZED INTERNAL COORDINATES **
   Searching for a Minimum

   Optimization Cycle:   7

                       Coordinates (Angstroms)
     ATOM                X               Y               Z
      1  C         0.0538778362    0.0122134956    0.0565217547
      2  C        -0.0982812926    0.0133389645    1.5756466889
      3  O         0.9806986265   -0.0102623882    2.1150528162
      4  H        -0.2862262506   -0.9220212156   -0.3952299768
      5  H        -0.3969702006    0.8929868403   -0.4070811870
      6  H        -0.9965283795    0.0790147336    2.2284677443
      7  H         1.1074900941    0.0776387094    0.2998711154
   Point Group: c1    Number of degrees of freedom:    15


   Energy is   -153.804390746

 Hessian Updated using BFGS Update

 15 Hessian modes will be used to form the next step
  Hessian Eigenvalues:
     0.009436    0.026606    0.027736    0.031140    0.068089    0.097042
     0.107218    0.178862    0.212902    0.272997    0.344315    0.348166
     0.348243    0.367165    0.827389

 Minimum Search - Taking Simple RFO Step
 Searching for Lamda that Minimizes Along All modes
 Value Taken    Lamda =  -0.02134185
 Calculated Step too Large.  Step scaled by  0.462821
 Step Taken.  Stepsize is  0.300000

                             Maximum     Tolerance    Cnvgd?
         Gradient           0.023845      0.000300      NO
         Displacement       0.167064      0.001200      NO
         Energy change     -0.010366      0.000001      NO


 New Cartesian Coordinates Obtained by Inverse Iteration

 Displacement from previous Coordinates is:  0.160173
 ----------------------------------------------------------------
             Standard Nuclear Orientation (Angstroms)
    I     Atom           X                Y                Z
 ----------------------------------------------------------------
    1      C       0.0556134191     0.0144323819     0.0706214715
    2      C      -0.0971664046     0.0154727553     1.5909938039
    3      O       0.9723160223    -0.0122891095     2.1473909602
    4      H      -0.2839032810    -0.9179008057    -0.3869117699
    5      H      -0.3964588526     0.8907819704    -0.4008694597
    6      H      -1.0115391878     0.0762962560     2.2220922357
    7      H       1.1251987180     0.0761156910     0.2299317140
 ----------------------------------------------------------------
 Nuclear Repulsion Energy =    70.8364206110 hartrees
 There are       12 alpha and       12 beta electrons
 Applying Cartesian multipole field
    Component          Value
    ---------          -----
     (2,0,0)        1.00000E-10
     (0,2,0)        2.00000E-10
     (0,0,2)       -3.00000E-11
 Nucleus-field energy     =    -0.0000000013 hartrees
 Requested basis set is 6-31G(d,p)
 There are 24 shells and 65 basis functions
 A cutoff of  1.0D-11 yielded    297 shell pairs
 There are      2231 function pairs
 Smallest overlap matrix eigenvalue = 5.05E-03
 Guess MOs from SCF MO coefficient file

 -----------------------------------------------------------------------
  General SCF calculation program by
  Eric Jon Sundstrom, Paul Horn, Yuezhi Mao, Dmitri Zuev, Alec White,
  David Stuck, Shaama M.S., Shane Yost, Joonho Lee, David Small,
  Daniel Levine, Susi Lehtola, Hugh Burton, Evgeny Epifanovsky
 -----------------------------------------------------------------------
 Exchange:     0.2000 Hartree-Fock + 0.0800 Slater + 0.7200 B88
 Correlation:  0.1900 VWN1RPA + 0.8100 LYP
 Using SG-1 standard quadrature grid
 using 8 threads for integral computing
 -------------------------------------------------------
 OpenMP Integral computing Module                
 Release: version 1.0, May 2013, Q-Chem Inc. Pittsburgh 
 -------------------------------------------------------
 -------------------------------------------------------
 OpenMP BLAS3 based DFT computing Module                
 Release: version 1.0, May 2013, Q-Chem Inc. Pittsburgh 
 -------------------------------------------------------
 A restricted SCF calculation will be
 performed using DIIS
 SCF converges when DIIS error is below 1.0e-08
 ---------------------------------------
  Cycle       Energy         DIIS error
 ---------------------------------------
    1    -153.8124348154      9.57e-04  
    2    -153.8131529726      2.08e-04  
    3    -153.8131319138      3.22e-04  
    4    -153.8131735068      7.06e-05  
    5    -153.8131755045      1.57e-05  
    6    -153.8131756232      2.07e-06  
    7    -153.8131756251      8.24e-07  
    8    -153.8131756255      9.32e-08  
    9    -153.8131756255      2.07e-08  
   10    -153.8131756255      3.96e-09  Convergence criterion met
 ---------------------------------------
 SCF time:   CPU 4.17s  wall 0.00s 
 SCF   energy in the final basis set =     -153.8131756255
 Total energy in the final basis set =     -153.8131756255
 
 --------------------------------------------------------------
 
                    Orbital Energies (a.u.)
 --------------------------------------------------------------
 
 Alpha MOs
 -- Occupied --
-19.148 -10.281 -10.190  -1.056  -0.741  -0.583  -0.491  -0.447
 -0.422  -0.379  -0.366  -0.255
 -- Virtual --
 -0.024   0.120   0.121   0.160   0.164   0.236   0.294   0.521
  0.526   0.557   0.600   0.671   0.695   0.741   0.830   0.841
  0.854   0.903   0.928   0.979   1.086   1.209   1.315   1.379
  1.479   1.576   1.696   1.742   1.880   1.929   1.980   1.991
  2.016   2.024   2.122   2.266   2.321   2.355   2.513   2.581
  2.622   2.638   2.816   2.876   2.939   2.970   3.234   3.361
  3.417   3.451   3.840   4.173   4.547
 --------------------------------------------------------------
 
          Ground-State Mulliken Net Atomic Charges

     Atom                 Charge (a.u.)
  ----------------------------------------
      1 C                    -0.401411
      2 C                     0.285327
      3 O                    -0.380690
      4 H                     0.130988
      5 H                     0.125058
      6 H                     0.080099
      7 H                     0.160629
  ----------------------------------------
  Sum of atomic charges =     0.000000

 -----------------------------------------------------------------
                    Cartesian Multipole Moments
 -----------------------------------------------------------------
    Charge (ESU x 10^10)
                 0.0000
    Dipole Moment (Debye)
         X      -1.9211      Y       0.0454      Z      -1.2941
       Tot       2.3167
    Quadrupole Moments (Debye-Ang)
        XX     -19.8292     XY       0.0158     YY     -17.4565
        XZ      -4.1819     YZ       0.1656     ZZ     -22.6010
    Octopole Moments (Debye-Ang^2)
       XXX     -15.0012    XXY      -0.0030    XYY      -4.7682
       YYY      -0.6793    XXZ     -23.9744    XYZ       0.0677
       YYZ     -20.4894    XZZ     -15.0296    YZZ       0.0870
       ZZZ     -73.8318
    Hexadecapole Moments (Debye-Ang^3)
      XXXX     -60.2702   XXXY       0.5239   XXYY     -13.5698
      XYYY       0.3781   YYYY     -22.2526   XXXZ     -31.1942
      XXYZ       0.0277   XYYZ      -8.2109   YYYZ      -0.3411
      XXZZ     -60.7610   XYZZ       0.1091   YYZZ     -46.3143
      XZZZ     -50.9344   YZZZ       0.2466   ZZZZ    -293.8619
 -----------------------------------------------------------------
 Calculating analytic gradient of the SCF energy
 Gradient of SCF Energy
            1           2           3           4           5           6
    1   0.0141949   0.0040213  -0.0125582  -0.0000949  -0.0005400   0.0045408
    2  -0.0018290  -0.0019351   0.0016901  -0.0010480   0.0013951   0.0017756
    3  -0.0222662   0.0057433  -0.0369084   0.0025203   0.0030326   0.0119679
            7
    1  -0.0095639
    2  -0.0000488
    3   0.0359106
 Max gradient component =       3.691E-02
 RMS gradient           =       1.353E-02
 Gradient time:  CPU 2.50 s  wall 0.31 s
 Geometry Optimization Parameters
   NAtoms,    NIC,     NZ,  NCons,   NDum,   NFix, NCnnct, MaxDiis
        7      58       7       0       0       0       0       0

 Cartesian Hessian Update
 Hessian Updated using BFGS Update


** GEOMETRY OPTIMIZATION IN DELOCALIZED INTERNAL COORDINATES **
   Searching for a Minimum

   Optimization Cycle:   8

                       Coordinates (Angstroms)
     ATOM                X               Y               Z
      1  C         0.0556134191    0.0144323819    0.0706214715
      2  C        -0.0971664046    0.0154727553    1.5909938039
      3  O         0.9723160223   -0.0122891095    2.1473909602
      4  H        -0.2839032810   -0.9179008057   -0.3869117699
      5  H        -0.3964588526    0.8907819704   -0.4008694597
      6  H        -1.0115391878    0.0762962560    2.2220922357
      7  H         1.1251987180    0.0761156910    0.2299317140
   Point Group: c1    Number of degrees of freedom:    15


   Energy is   -153.813175625

 Hessian Updated using BFGS Update

 15 Hessian modes will be used to form the next step
  Hessian Eigenvalues:
     0.009433    0.023134    0.027724    0.031356    0.068081    0.097060
     0.107375    0.178913    0.213404    0.272475    0.345401    0.348166
     0.348308    0.367809    0.765873

 Minimum Search - Taking Simple RFO Step
 Searching for Lamda that Minimizes Along All modes
 Value Taken    Lamda =  -0.01743957
 Calculated Step too Large.  Step scaled by  0.472510
 Step Taken.  Stepsize is  0.300000

                             Maximum     Tolerance    Cnvgd?
         Gradient           0.019885      0.000300      NO
         Displacement       0.168081      0.001200      NO
         Energy change     -0.008785      0.000001      NO


 New Cartesian Coordinates Obtained by Inverse Iteration

 Displacement from previous Coordinates is:  0.168592
 ----------------------------------------------------------------
             Standard Nuclear Orientation (Angstroms)
    I     Atom           X                Y                Z
 ----------------------------------------------------------------
    1      C       0.0608279151     0.0168960934     0.0861338555
    2      C      -0.0915941933     0.0173180523     1.6020787896
    3      O       0.9651006330    -0.0141771226     2.1833757083
    4      H      -0.2868824530    -0.9130654367    -0.3723280685
    5      H      -0.3994037983     0.8878138559    -0.3888620660
    6      H      -1.0264252632     0.0728108933     2.2026399661
    7      H       1.1424375931     0.0753128040     0.1602107707
 ----------------------------------------------------------------
 Nuclear Repulsion Energy =    70.6053755666 hartrees
 There are       12 alpha and       12 beta electrons
 Applying Cartesian multipole field
    Component          Value
    ---------          -----
     (2,0,0)        1.00000E-10
     (0,2,0)        2.00000E-10
     (0,0,2)       -3.00000E-11
 Nucleus-field energy     =    -0.0000000015 hartrees
 Requested basis set is 6-31G(d,p)
 There are 24 shells and 65 basis functions
 A cutoff of  1.0D-11 yielded    297 shell pairs
 There are      2231 function pairs
 Smallest overlap matrix eigenvalue = 5.08E-03
 Guess MOs from SCF MO coefficient file

 -----------------------------------------------------------------------
  General SCF calculation program by
  Eric Jon Sundstrom, Paul Horn, Yuezhi Mao, Dmitri Zuev, Alec White,
  David Stuck, Shaama M.S., Shane Yost, Joonho Lee, David Small,
  Daniel Levine, Susi Lehtola, Hugh Burton, Evgeny Epifanovsky
 -----------------------------------------------------------------------
 Exchange:     0.2000 Hartree-Fock + 0.0800 Slater + 0.7200 B88
 Correlation:  0.1900 VWN1RPA + 0.8100 LYP
 Using SG-1 standard quadrature grid
 using 8 threads for integral computing
 -------------------------------------------------------
 OpenMP Integral computing Module                
 Release: version 1.0, May 2013, Q-Chem Inc. Pittsburgh 
 -------------------------------------------------------
 -------------------------------------------------------
 OpenMP BLAS3 based DFT computing Module                
 Release: version 1.0, May 2013, Q-Chem Inc. Pittsburgh 
 -------------------------------------------------------
 A restricted SCF calculation will be
 performed using DIIS
 SCF converges when DIIS error is below 1.0e-08
 ---------------------------------------
  Cycle       Energy         DIIS error
 ---------------------------------------
    1    -153.8195722745      1.01e-03  
    2    -153.8204076025      1.92e-04  
    3    -153.8203847880      3.21e-04  
    4    -153.8204261731      5.78e-05  
    5    -153.8204275054      1.35e-05  
    6    -153.8204275950      2.16e-06  
    7    -153.8204275972      7.19e-07  
    8    -153.8204275975      1.10e-07  
    9    -153.8204275975      2.36e-08  
   10    -153.8204275975      5.19e-09  Convergence criterion met
 ---------------------------------------
 SCF time:   CPU 4.12s  wall 0.00s 
 SCF   energy in the final basis set =     -153.8204275975
 Total energy in the final basis set =     -153.8204275975
 
 --------------------------------------------------------------
 
                    Orbital Energies (a.u.)
 --------------------------------------------------------------
 
 Alpha MOs
 -- Occupied --
-19.148 -10.280 -10.191  -1.053  -0.742  -0.582  -0.487  -0.446
 -0.422  -0.385  -0.365  -0.254
 -- Virtual --
 -0.024   0.119   0.123   0.158   0.163   0.237   0.293   0.522
  0.525   0.565   0.599   0.672   0.701   0.739   0.829   0.839
  0.860   0.899   0.915   0.980   1.090   1.211   1.311   1.398
  1.478   1.570   1.698   1.750   1.882   1.909   1.982   1.999
  2.022   2.036   2.113   2.249   2.313   2.345   2.539   2.582
  2.607   2.626   2.827   2.866   2.934   2.970   3.223   3.362
  3.411   3.453   3.828   4.171   4.545
 --------------------------------------------------------------
 
          Ground-State Mulliken Net Atomic Charges

     Atom                 Charge (a.u.)
  ----------------------------------------
      1 C                    -0.398134
      2 C                     0.287726
      3 O                    -0.380237
      4 H                     0.131333
      5 H                     0.125558
      6 H                     0.077904
      7 H                     0.155850
  ----------------------------------------
  Sum of atomic charges =     0.000000

 -----------------------------------------------------------------
                    Cartesian Multipole Moments
 -----------------------------------------------------------------
    Charge (ESU x 10^10)
                 0.0000
    Dipole Moment (Debye)
         X      -1.8934      Y       0.0477      Z      -1.4112
       Tot       2.3619
    Quadrupole Moments (Debye-Ang)
        XX     -19.7416     XY       0.0206     YY     -17.4844
        XZ      -4.2676     YZ       0.1646     ZZ     -22.9333
    Octopole Moments (Debye-Ang^2)
       XXX     -14.9294    XXY      -0.0122    XYY      -4.7693
       YYY      -0.7054    XXZ     -24.3432    XYZ       0.0795
       YYZ     -20.7575    XZZ     -15.1578    YZZ       0.0944
       ZZZ     -75.7265
    Hexadecapole Moments (Debye-Ang^3)
      XXXX     -59.9354   XXXY       0.5504   XXYY     -13.5452
      XYYY       0.3953   YYYY     -22.2697   XXXZ     -31.5255
      XXYZ       0.0410   XYYZ      -8.2849   YYYZ      -0.2890
      XXZZ     -61.8246   XYZZ       0.1603   YYZZ     -47.2102
      XZZZ     -51.5213   YZZZ       0.3392   ZZZZ    -302.5811
 -----------------------------------------------------------------
 Calculating analytic gradient of the SCF energy
 Gradient of SCF Energy
            1           2           3           4           5           6
    1   0.0101642  -0.0005748  -0.0098386   0.0008312   0.0001308   0.0038018
    2  -0.0013357  -0.0015172   0.0014080  -0.0010370   0.0012948   0.0013716
    3  -0.0169481   0.0070004  -0.0312399   0.0017988   0.0022850   0.0107886
            7
    1  -0.0045147
    2  -0.0001846
    3   0.0263152
 Max gradient component =       3.124E-02
 RMS gradient           =       1.064E-02
 Gradient time:  CPU 2.50 s  wall 0.31 s
 Geometry Optimization Parameters
   NAtoms,    NIC,     NZ,  NCons,   NDum,   NFix, NCnnct, MaxDiis
        7      58       7       0       0       0       0       0

 Cartesian Hessian Update
 Hessian Updated using BFGS Update


** GEOMETRY OPTIMIZATION IN DELOCALIZED INTERNAL COORDINATES **
   Searching for a Minimum

   Optimization Cycle:   9

                       Coordinates (Angstroms)
     ATOM                X               Y               Z
      1  C         0.0608279151    0.0168960934    0.0861338555
      2  C        -0.0915941933    0.0173180523    1.6020787896
      3  O         0.9651006330   -0.0141771226    2.1833757083
      4  H        -0.2868824530   -0.9130654367   -0.3723280685
      5  H        -0.3994037983    0.8878138559   -0.3888620660
      6  H        -1.0264252632    0.0728108933    2.2026399661
      7  H         1.1424375931    0.0753128040    0.1602107707
[...]
    7      H       1.1722019366     0.0439550776    -0.1556179458
 ----------------------------------------------------------------
 Nuclear Repulsion Energy =    69.5090199771 hartrees
 There are       12 alpha and       12 beta electrons
 Applying Cartesian multipole field
    Component          Value
    ---------          -----
     (2,0,0)        1.00000E-10
     (0,2,0)        2.00000E-10
     (0,0,2)       -3.00000E-11
 Nucleus-field energy     =    -0.0000000026 hartrees
 Requested basis set is 6-31G(d,p)
 There are 24 shells and 65 basis functions
 A cutoff of  1.0D-11 yielded    297 shell pairs
 There are      2231 function pairs
 Smallest overlap matrix eigenvalue = 5.49E-03
 Guess MOs from SCF MO coefficient file

 -----------------------------------------------------------------------
  General SCF calculation program by
  Eric Jon Sundstrom, Paul Horn, Yuezhi Mao, Dmitri Zuev, Alec White,
  David Stuck, Shaama M.S., Shane Yost, Joonho Lee, David Small,
  Daniel Levine, Susi Lehtola, Hugh Burton, Evgeny Epifanovsky
 -----------------------------------------------------------------------
 Exchange:     0.2000 Hartree-Fock + 0.0800 Slater + 0.7200 B88
 Correlation:  0.1900 VWN1RPA + 0.8100 LYP
 Using SG-1 standard quadrature grid
 using 8 threads for integral computing
 -------------------------------------------------------
 OpenMP Integral computing Module                
 Release: version 1.0, May 2013, Q-Chem Inc. Pittsburgh 
 -------------------------------------------------------
 -------------------------------------------------------
 OpenMP BLAS3 based DFT computing Module                
 Release: version 1.0, May 2013, Q-Chem Inc. Pittsburgh 
 -------------------------------------------------------
 A restricted SCF calculation will be
 performed using DIIS
 SCF converges when DIIS error is below 1.0e-08
 ---------------------------------------
  Cycle       Energy         DIIS error
 ---------------------------------------
    1    -153.8357216089      9.10e-05  
    2    -153.8357307917      1.39e-05  
    3    -153.8357309351      1.17e-05  
    4    -153.8357309739      7.19e-06  
    5    -153.8357309952      9.37e-07  
    6    -153.8357309958      4.12e-07  
    7    -153.8357309959      6.15e-08  
    8    -153.8357309959      1.48e-08  
    9    -153.8357309959      3.79e-09  Convergence criterion met
 ---------------------------------------
 SCF time:   CPU 3.66s  wall 0.00s 
 SCF   energy in the final basis set =     -153.8357309959
 Total energy in the final basis set =     -153.8357309959
 
 --------------------------------------------------------------
 
                    Orbital Energies (a.u.)
 --------------------------------------------------------------
 
 Alpha MOs
 -- Occupied --
-19.151 -10.282 -10.198  -1.046  -0.754  -0.581  -0.477  -0.444
 -0.434  -0.398  -0.364  -0.255
 -- Virtual --
 -0.022   0.107   0.131   0.152   0.154   0.254   0.279   0.523
  0.533   0.581   0.589   0.663   0.694   0.738   0.827   0.834
  0.868   0.899   0.911   0.986   1.077   1.247   1.295   1.441
  1.463   1.594   1.711   1.767   1.784   1.902   1.979   2.011
  2.019   2.058   2.091   2.239   2.281   2.340   2.523   2.575
  2.629   2.669   2.816   2.859   2.946   2.974   3.176   3.391
  3.401   3.434   3.856   4.172   4.526
 --------------------------------------------------------------
 
          Ground-State Mulliken Net Atomic Charges

     Atom                 Charge (a.u.)
  ----------------------------------------
      1 C                    -0.386370
      2 C                     0.298324
      3 O                    -0.383057
      4 H                     0.133370
      5 H                     0.133132
      6 H                     0.063308
      7 H                     0.141293
  ----------------------------------------
  Sum of atomic charges =     0.000000

 -----------------------------------------------------------------
                    Cartesian Multipole Moments
 -----------------------------------------------------------------
    Charge (ESU x 10^10)
                 0.0000
    Dipole Moment (Debye)
         X      -1.6922      Y      -0.0340      Z      -2.0392
       Tot       2.6501
    Quadrupole Moments (Debye-Ang)
        XX     -19.4847     XY      -0.0674     YY     -17.6046
        XZ      -4.2473     YZ      -0.1253     ZZ     -25.1100
    Octopole Moments (Debye-Ang^2)
       XXX     -15.6706    XXY      -0.4770    XYY      -5.1484
       YYY      -1.3236    XXZ     -26.3409    XYZ      -0.1727
       YYZ     -22.0573    XZZ     -15.3163    YZZ      -0.7988
       ZZZ     -87.3105
    Hexadecapole Moments (Debye-Ang^3)
      XXXX     -57.9732   XXXY      -0.6663   XXYY     -13.2053
      XYYY      -0.6417   YYYY     -22.2433   XXXZ     -34.6801
      XXYZ      -0.8486   XYYZ      -9.2194   YYYZ      -1.8772
      XXZZ     -68.1892   XYZZ      -0.6189   YYZZ     -52.5752
      XZZZ     -55.2118   YZZZ      -2.8708   ZZZZ    -358.1723
 -----------------------------------------------------------------
 Calculating analytic gradient of the SCF energy
 Gradient of SCF Energy
            1           2           3           4           5           6
    1   0.0002245   0.0000636  -0.0000324  -0.0001552  -0.0000257  -0.0000232
    2  -0.0004453  -0.0000331   0.0000345   0.0001039   0.0000298   0.0000782
    3   0.0001326  -0.0000404  -0.0000652  -0.0000445   0.0000058  -0.0000349
            7
    1  -0.0000516
    2   0.0002319
    3   0.0000465
 Max gradient component =       4.453E-04
 RMS gradient           =       1.353E-04
 Gradient time:  CPU 2.47 s  wall 0.31 s
 Geometry Optimization Parameters
   NAtoms,    NIC,     NZ,  NCons,   NDum,   NFix, NCnnct, MaxDiis
        7      58       7       0       0       0       0       0

 Cartesian Hessian Update
 Hessian Updated using BFGS Update


** GEOMETRY OPTIMIZATION IN DELOCALIZED INTERNAL COORDINATES **
   Searching for a Minimum

   Optimization Cycle:  24

                       Coordinates (Angstroms)
     ATOM                X               Y               Z
      1  C         0.1206977577    0.0199427744    0.1352944798
      2  C        -0.0130769960    0.0192993855    1.6363042826
      3  O         0.9174732027    0.0383536019    2.4104579438
      4  H        -0.3674011637   -0.8690929892   -0.2825586607
      5  H        -0.4033515275    0.8890782020   -0.2814448508
      6  H        -1.0624827763    0.0013730874    2.0108137067
      7  H         1.1722019366    0.0439550776   -0.1556179458
   Point Group: c1    Number of degrees of freedom:    15


   Energy is   -153.835730996

 Hessian Updated using BFGS Update

 15 Hessian modes will be used to form the next step
  Hessian Eigenvalues:
     0.001106    0.012517    0.022886    0.031287    0.085739    0.097334
     0.130665    0.173988    0.200300    0.235687    0.330696    0.347371
     0.348047    0.360841    0.639761

 Minimum Search - Taking Simple RFO Step
 Searching for Lamda that Minimizes Along All modes
 Value Taken    Lamda =  -0.00000121
 Step Taken.  Stepsize is  0.008078

                             Maximum     Tolerance    Cnvgd?
         Gradient           0.000134      0.000300     YES
         Displacement       0.004882      0.001200      NO
         Energy change     -0.000002      0.000001      NO


 New Cartesian Coordinates Obtained by Inverse Iteration

 Displacement from previous Coordinates is:  0.004806
 ----------------------------------------------------------------
             Standard Nuclear Orientation (Angstroms)
    I     Atom           X                Y                Z
 ----------------------------------------------------------------
    1      C       0.1207942164     0.0205993886     0.1351697975
    2      C      -0.0133099825     0.0195624891     1.6363565541
    3      O       0.9172971511     0.0390628849     2.4104894044
    4      H      -0.3676423564    -0.8685753215    -0.2821358242
    5      H      -0.4029702780     0.8896098309    -0.2820413745
    6      H      -1.0624789177    -0.0001323798     2.0113507745
    7      H       1.1723706005     0.0427822473    -0.1559403761
 ----------------------------------------------------------------
 Nuclear Repulsion Energy =    69.5052374082 hartrees
 There are       12 alpha and       12 beta electrons
 Applying Cartesian multipole field
    Component          Value
    ---------          -----
     (2,0,0)        1.00000E-10
     (0,2,0)        2.00000E-10
     (0,0,2)       -3.00000E-11
 Nucleus-field energy     =    -0.0000000026 hartrees
 Requested basis set is 6-31G(d,p)
 There are 24 shells and 65 basis functions
 A cutoff of  1.0D-11 yielded    297 shell pairs
 There are      2231 function pairs
 Smallest overlap matrix eigenvalue = 5.50E-03
 Guess MOs from SCF MO coefficient file

 -----------------------------------------------------------------------
  General SCF calculation program by
  Eric Jon Sundstrom, Paul Horn, Yuezhi Mao, Dmitri Zuev, Alec White,
  David Stuck, Shaama M.S., Shane Yost, Joonho Lee, David Small,
  Daniel Levine, Susi Lehtola, Hugh Burton, Evgeny Epifanovsky
 -----------------------------------------------------------------------
 Exchange:     0.2000 Hartree-Fock + 0.0800 Slater + 0.7200 B88
 Correlation:  0.1900 VWN1RPA + 0.8100 LYP
 Using SG-1 standard quadrature grid
 using 8 threads for integral computing
 -------------------------------------------------------
 OpenMP Integral computing Module                
 Release: version 1.0, May 2013, Q-Chem Inc. Pittsburgh 
 -------------------------------------------------------
 -------------------------------------------------------
 OpenMP BLAS3 based DFT computing Module                
 Release: version 1.0, May 2013, Q-Chem Inc. Pittsburgh 
 -------------------------------------------------------
 A restricted SCF calculation will be
 performed using DIIS
 SCF converges when DIIS error is below 1.0e-08
 ---------------------------------------
  Cycle       Energy         DIIS error
 ---------------------------------------
    1    -153.8357311899      2.31e-05  
    2    -153.8357317902      4.25e-06  
    3    -153.8357317999      5.15e-06  
    4    -153.8357318096      1.98e-06  
    5    -153.8357318114      4.21e-07  
    6    -153.8357318115      1.54e-07  
    7    -153.8357318116      2.85e-08  
    8    -153.8357318116      8.86e-09  Convergence criterion met
 ---------------------------------------
 SCF time:   CPU 3.22s  wall 1.00s 
 SCF   energy in the final basis set =     -153.8357318116
 Total energy in the final basis set =     -153.8357318116
 
 --------------------------------------------------------------
 
                    Orbital Energies (a.u.)
 --------------------------------------------------------------
 
 Alpha MOs
 -- Occupied --
-19.151 -10.282 -10.198  -1.046  -0.754  -0.581  -0.477  -0.444
 -0.434  -0.398  -0.364  -0.255
 -- Virtual --
 -0.022   0.107   0.131   0.152   0.154   0.254   0.279   0.523
  0.533   0.581   0.589   0.663   0.694   0.738   0.827   0.835
  0.868   0.899   0.911   0.986   1.077   1.247   1.295   1.441
  1.463   1.594   1.711   1.767   1.784   1.902   1.979   2.011
  2.019   2.058   2.092   2.238   2.281   2.340   2.523   2.575
  2.629   2.668   2.816   2.859   2.946   2.974   3.176   3.391
  3.401   3.434   3.855   4.172   4.526
 --------------------------------------------------------------
 
          Ground-State Mulliken Net Atomic Charges

     Atom                 Charge (a.u.)
  ----------------------------------------
      1 C                    -0.386369
      2 C                     0.298269
      3 O                    -0.383050
      4 H                     0.133283
      5 H                     0.133189
      6 H                     0.063371
      7 H                     0.141308
  ----------------------------------------
  Sum of atomic charges =     0.000000

 -----------------------------------------------------------------
                    Cartesian Multipole Moments
 -----------------------------------------------------------------
    Charge (ESU x 10^10)
                 0.0000
    Dipole Moment (Debye)
         X      -1.6923      Y      -0.0353      Z      -2.0389
       Tot       2.6500
    Quadrupole Moments (Debye-Ang)
        XX     -19.4838     XY      -0.0711     YY     -17.6053
        XZ      -4.2491     YZ      -0.1289     ZZ     -25.1085
    Octopole Moments (Debye-Ang^2)
       XXX     -15.6659    XXY      -0.4884    XYY      -5.1476
       YYY      -1.3420    XXZ     -26.3391    XYZ      -0.1749
       YYZ     -22.0575    XZZ     -15.3185    YZZ      -0.8114
       ZZZ     -87.3057
    Hexadecapole Moments (Debye-Ang^3)
      XXXX     -57.9616   XXXY      -0.6853   XXYY     -13.2049
      XYYY      -0.6571   YYYY     -22.2470   XXXZ     -34.6676
      XXYZ      -0.8622   XYYZ      -9.2157   YYYZ      -1.9020
      XXZZ     -68.1848   XYZZ      -0.6301   YYZZ     -52.5798
      XZZZ     -55.2080   YZZZ      -2.9104   ZZZZ    -358.1826
 -----------------------------------------------------------------
 Calculating analytic gradient of the SCF energy
 Gradient of SCF Energy
            1           2           3           4           5           6
    1   0.0002784  -0.0000996  -0.0000082  -0.0001172  -0.0000627   0.0000062
    2  -0.0002196  -0.0000013   0.0000147   0.0000684  -0.0000039   0.0000350
    3   0.0000594  -0.0000326  -0.0000398  -0.0000278   0.0000100   0.0000456
            7
    1   0.0000030
    2   0.0001068
    3  -0.0000148
 Max gradient component =       2.784E-04
 RMS gradient           =       9.267E-05
 Gradient time:  CPU 2.44 s  wall 0.31 s
 Geometry Optimization Parameters
   NAtoms,    NIC,     NZ,  NCons,   NDum,   NFix, NCnnct, MaxDiis
        7      58       7       0       0       0       0       0

 Cartesian Hessian Update
 Hessian Updated using BFGS Update


** GEOMETRY OPTIMIZATION IN DELOCALIZED INTERNAL COORDINATES **
   Searching for a Minimum

   Optimization Cycle:  25

                       Coordinates (Angstroms)
     ATOM                X               Y               Z
      1  C         0.1207942164    0.0205993886    0.1351697975
      2  C        -0.0133099825    0.0195624891    1.6363565541
      3  O         0.9172971511    0.0390628849    2.4104894044
      4  H        -0.3676423564   -0.8685753215   -0.2821358242
      5  H        -0.4029702780    0.8896098309   -0.2820413745
      6  H        -1.0624789177   -0.0001323798    2.0113507745
      7  H         1.1723706005    0.0427822473   -0.1559403761
   Point Group: c1    Number of degrees of freedom:    15


   Energy is   -153.835731812

 Hessian Updated using BFGS Update

 15 Hessian modes will be used to form the next step
  Hessian Eigenvalues:
     0.001117    0.012564    0.019367    0.027932    0.074112    0.099230
     0.122263    0.176449    0.204745    0.236663    0.330114    0.347347
     0.347705    0.361703    0.638703

 Minimum Search - Taking Simple RFO Step
 Searching for Lamda that Minimizes Along All modes
 Value Taken    Lamda =   0.00000000
 Step Taken.  Stepsize is  0.004191

                             Maximum     Tolerance    Cnvgd?
         Gradient           0.000094      0.000300     YES
         Displacement       0.002498      0.001200      NO
         Energy change     -0.000001      0.000001     YES


                       Distance Matrix (Angstroms)
             C (  1)   C (  2)   O (  3)   H (  4)   H (  5)   H (  6)
   C (  2)  1.507165
   O (  3)  2.410775  1.210657
   H (  4)  1.096971  2.143584  3.118510
   H (  5)  1.097075  2.142211  3.117091  1.758540
   H (  6)  2.218247  1.114345  2.019990  2.548935  2.546810
   H (  7)  1.091352  2.149117  2.579077  1.793917  1.792963  3.113446

 
 Final energy is   -153.835731811553     


 ******************************
 **  OPTIMIZATION CONVERGED  **
 ******************************

                       Coordinates (Angstroms)
     ATOM                X               Y               Z
      1  C         0.1207942164    0.0205993886    0.1351697975
      2  C        -0.0133099825    0.0195624891    1.6363565541
      3  O         0.9172971511    0.0390628849    2.4104894044
      4  H        -0.3676423564   -0.8685753215   -0.2821358242
      5  H        -0.4029702780    0.8896098309   -0.2820413745
      6  H        -1.0624789177   -0.0001323798    2.0113507745
      7  H         1.1723706005    0.0427822473   -0.1559403761

Z-matrix Print:
$molecule
0 1
C 
H  1 1.114345
O  1 1.210657 2 120.585706
C  1 1.507165 2 114.769352 3 -179.950330 0
H  4 1.091352 1 110.575010 2 179.867881 0
H  4 1.096971 1 109.799602 2 -58.416484 0
H  4 1.097075 1 109.685130 2 58.346811 0
$end

 
 --------------------------------------------------------------
 
                    Orbital Energies (a.u.)
 --------------------------------------------------------------
 
 Alpha MOs
 -- Occupied --
-19.151 -10.282 -10.198  -1.046  -0.754  -0.581  -0.477  -0.444
 -0.434  -0.398  -0.364  -0.255
 -- Virtual --
 -0.022   0.107   0.131   0.152   0.154   0.254   0.279   0.523
  0.533   0.581   0.589   0.663   0.694   0.738   0.827   0.835
  0.868   0.899   0.911   0.986   1.077   1.247   1.295   1.441
  1.463   1.594   1.711   1.767   1.784   1.902   1.979   2.011
  2.019   2.058   2.092   2.238   2.281   2.340   2.523   2.575
  2.629   2.668   2.816   2.859   2.946   2.974   3.176   3.391
  3.401   3.434   3.855   4.172   4.526
 --------------------------------------------------------------
 
          Ground-State Mulliken Net Atomic Charges

     Atom                 Charge (a.u.)
  ----------------------------------------
      1 C                    -0.386369
      2 C                     0.298269
      3 O                    -0.383050
      4 H                     0.133283
      5 H                     0.133189
      6 H                     0.063371
      7 H                     0.141308
  ----------------------------------------
  Sum of atomic charges =     0.000000

 -----------------------------------------------------------------
                    Cartesian Multipole Moments
 -----------------------------------------------------------------
    Charge (ESU x 10^10)
                 0.0000
    Dipole Moment (Debye)
         X      -1.6923      Y      -0.0353      Z      -2.0389
       Tot       2.6500
    Quadrupole Moments (Debye-Ang)
        XX     -19.4838     XY      -0.0711     YY     -17.6053
        XZ      -4.2491     YZ      -0.1289     ZZ     -25.1085
    Octopole Moments (Debye-Ang^2)
       XXX     -15.6659    XXY      -0.4884    XYY      -5.1476
       YYY      -1.3420    XXZ     -26.3391    XYZ      -0.1749
       YYZ     -22.0575    XZZ     -15.3185    YZZ      -0.8114
       ZZZ     -87.3057
    Hexadecapole Moments (Debye-Ang^3)
      XXXX     -57.9616   XXXY      -0.6853   XXYY     -13.2049
      XYYY      -0.6571   YYYY     -22.2470   XXXZ     -34.6676
      XXYZ      -0.8622   XYYZ      -9.2157   YYYZ      -1.9020
      XXZZ     -68.1848   XYZZ      -0.6301   YYZZ     -52.5798
      XZZZ     -55.2080   YZZZ      -2.9104   ZZZZ    -358.1826
 -----------------------------------------------------------------
Archival summary:
1\1\node8\OPT\ProcedureUnspecified\6-31G**\124\songzl\MonMar2721:29:452023MonMar2721:29:452023\0\\#,OPT,ProcedureUnspecified,6-31G**,\\0,1\C\H,1,1.11434\O,1,1.21066,2,120.586\C,1,1.50717,2,114.769,3,-179.95,0\H,4,1.09135,1,110.575,2,179.868,0\H,4,1.09697,1,109.8,2,-58.4165,0\H,4,1.09708,1,109.685,2,58.3468,0\\\@

 Total job time:  22.20s(wall), 175.22s(cpu) 
 Mon Mar 27 21:29:45 2023

        *************************************************************
        *                                                           *
        *  Thank you very much for using Q-Chem.  Have a nice day.  *
        *                                                           *
        *************************************************************


