
Running Job 1 of 1 qchem_batch_opt.inp
qchem qchem_batch_opt.inp_2986.0 /tmp/songzl/qchem_baker_set/qchem2986/ 1
/apps/apps/qchem/qc51/exe/qcprog.exe_s qchem_batch_opt.inp_2986.0 /tmp/songzl/qchem_baker_set/qchem2986/
Check license passed

                  Welcome to Q-Chem
     A Quantum Leap Into The Future Of Chemistry


 Q-Chem 5.1, Q-Chem, Inc., Pleasanton, CA (2018)

 Yihan Shao,  Zhengting Gan,  E. Epifanovsky,  A. T. B. Gilbert,  M. Wormit,  
 J. Kussmann,  A. W. Lange,  A. Behn,  Jia Deng,  Xintian Feng,  D. Ghosh,  
 M. Goldey,  P. R. Horn,  L. D. Jacobson,  I. Kaliman,  T. Kus,  A. Landau,  
 Jie Liu,  E. I. Proynov,  R. M. Richard,  R. P. Steele,  E. J. Sundstrom,  
 H. L. Woodcock III,  P. M. Zimmerman,  D. Zuev,  B. Albrecht,  E. Alguire,  
 S. A. Baeppler,  D. Barton,  Z. Benda,  Y. A. Bernard,  E. J. Berquist,  
 K. B. Bravaya,  H. Burton,  D. Casanova,  Chun-Min Chang,  Yunqing Chen,  
 A. Chien,  K. D. Closser,  M. P. Coons,  S. Coriani,  S. Dasgupta,  
 A. L. Dempwolff,  M. Diedenhofen,  Hainam Do,  R. G. Edgar,  Po-Tung Fang,  
 S. Faraji,  S. Fatehi,  Qingguo Feng,  K. D. Fenk,  J. Fosso-Tande,  
 Qinghui Ge,  A. Ghysels,  G. Gidofalvi,  J. Gomes,  J. Gonthier,  A. Gunina,  
 D. Hait,  M. W. D. Hanson-Heine,  P. H. P. Harbach,  A. W. Hauser,  
 J. E. Herr,  E. G. Hohenstein,  Z. C. Holden,  Kerwin Hui,  B. C. Huynh,  
 T.-C. Jagau,  Hyunjun Ji,  B. Kaduk,  K. Khistyaev,  Jaehoon Kim,  
 P. Klunzinger,  K. Koh,  D. Kosenkov,  L. Koulias,  T. Kowalczyk,  
 C. M. Krauter,  A. Kunitsa,  Ka Un Lao,  A. Laurent,  K. V. Lawler,  
 Joonho Lee,  D. Lefrancois,  S. Lehtola,  D. S. Levine,  Yi-Pei Li,  
 You-Sheng Lin,  Fenglai Liu,  E. Livshits,  A. Luenser,  P. Manohar,  
 E. Mansoor,  S. F. Manzer,  Shan-Ping Mao,  Yuezhi Mao,  N. Mardirossian,  
 A. V. Marenich,  T. Markovich,  L. A. Martinez-Martinez,  S. A. Maurer,  
 N. J. Mayhall,  S. C. McKenzie,  J.-M. Mewes,  A. F. Morrison,  
 J. W. Mullinax,  K. Nanda,  T. S. Nguyen-Beck,  R. Olivares-Amaya,  
 J. A. Parkhill,  T. M. Perrine,  F. Plasser,  P. Pokhilko,  S. Prager,  
 A. Prociuk,  E. Ramos,  D. R. Rehn,  F. Rob,  M. Schneider,  N. Sergueev,  
 S. M. Sharada,  S. Sharma,  D. W. Small,  T. Stauch,  T. Stein,  
 Yu-Chuan Su,  A. J. W. Thom,  A. Tkatchenko,  T. Tsuchimochi,  N. M. Tubman,  
 L. Vogt,  M. L. Vidal,  O. Vydrov,  M. A. Watson,  J. Wenzel,  
 M. de Wergifosse,  T. A. Wesolowski,  A. White,  J. Witte,  A. Yamada,  
 Jun Yang,  K. Yao,  S. Yeganeh,  S. R. Yost,  Zhi-Qiang You,  A. Zech,  
 Igor Ying Zhang,  Xing Zhang,  Yan Zhao,  Ying Zhu,  B. R. Brooks,  
 G. K. L. Chan,  C. J. Cramer,  M. S. Gordon,  W. J. Hehre,  A. Klamt,  
 M. W. Schmidt,  C. D. Sherrill,  D. G. Truhlar,  A. Aspuru-Guzik,  R. Baer,  
 A. T. Bell,  N. A. Besley,  Jeng-Da Chai,  A. E. DePrince, III,  
 R. A. DiStasio Jr.,  A. Dreuw,  B. D. Dunietz,  T. R. Furlani,  
 Chao-Ping Hsu,  Yousung Jung,  Jing Kong,  D. S. Lambrecht,  WanZhen Liang,  
 C. Ochsenfeld,  V. A. Rassolov,  L. V. Slipchenko,  J. E. Subotnik,  
 T. Van Voorhis,  J. M. Herbert,  A. I. Krylov,  P. M. W. Gill,  M. Head-Gordon

 Contributors to earlier versions of Q-Chem not listed above: 
 R. D. Adamson,  B. Austin,  J. Baker,  G. J. O. Beran,  K. Brandhorst,  
 S. T. Brown,  E. F. C. Byrd,  A. K. Chakraborty,  C.-L. Cheng,  
 Siu Hung Chien,  D. M. Chipman,  D. L. Crittenden,  H. Dachsel,  
 R. J. Doerksen,  A. D. Dutoi,  L. Fusti-Molnar,  W. A. Goddard III,  
 A. Golubeva-Zadorozhnaya,  S. R. Gwaltney,  G. Hawkins,  A. Heyden,  
 S. Hirata,  G. Kedziora,  F. J. Keil,  C. Kelley,  Jihan Kim,  R. A. King,  
 R. Z. Khaliullin,  P. P. Korambath,  W. Kurlancheek,  A. M. Lee,  M. S. Lee,  
 S. V. Levchenko,  Ching Yeh Lin,  D. Liotard,  R. C. Lochan,  I. Lotan,  
 P. E. Maslen,  N. Nair,  D. P. O'Neill,  D. Neuhauser,  E. Neuscamman,  
 C. M. Oana,  R. Olson,  B. Peters,  R. Peverati,  P. A. Pieniazek,  
 Y. M. Rhee,  J. Ritchie,  M. A. Rohrdanz,  E. Rosta,  N. J. Russ,  
 H. F. Schaefer III,  N. E. Schultz,  N. Shenvi,  A. C. Simmonett,  A. Sodt,  
 D. Stuck,  K. S. Thanthiriwatte,  V. Vanovschi,  Tao Wang,  A. Warshel,  
 C. F. Williams,  Q. Wu,  X. Xu,  W. Zhang

 Please cite Q-Chem as follows:
 Y. Shao et al., Mol. Phys. 113, 184-215 (2015)
 DOI: 10.1080/00268976.2014.952696

 Q-Chem 5.1.1 for Intel X86 EM64T Linux

 Parts of Q-Chem use Armadillo 8.300.2 (Tropical Shenanigans).
 http://arma.sourceforge.net/

 Q-Chem begins on Thu Apr  6 19:04:05 2023  

Host: 
0

     Scratch files written to /tmp/songzl/qchem_baker_set/qchem2986//
 Aug318 |scratch|qcdevops|jenkins|workspace|build_RNUM 6609   
Processing $rem in /apps/apps/qchem/qc51/config/preferences.
 MEM_TOTAL  1000 
The previous job contains 0 fragments, simply inherited here
Input Ideriv = 2
Curr. Ideriv = -1
Max.  Ideriv = 2

Checking the input file for inconsistencies... 	...done.

--------------------------------------------------------------
User input:
--------------------------------------------------------------
$molecule
READ ./zmat.inp
$end

$rem
mem_total               230000
mem_static              2048
job_type                optimization
basis                   6-31g**
method                  b3lyp
symmetry                false
sym_ignore              true
geom_opt_max_cycles     500
$end
--------------------------------------------------------------
 ----------------------------------------------------------------
             Standard Nuclear Orientation (Angstroms)
    I     Atom           X                Y                Z
 ----------------------------------------------------------------
    1      C       0.0000000000     0.0000000000     0.0000000000
    2      C       0.0000000000     0.0000000000     1.3400000000
    3      C       1.2557368355     0.0000000000     2.0650000000
    4      O       1.2557368355     0.0000000000     3.2850000000
    5      H      -0.9353074361    -0.0000000000    -0.5400000000
    6      H       0.9353074361     0.0000000000    -0.5400000000
    7      H      -0.9353074361     0.0000000000     1.8800000000
    8      H       2.1910442716    -0.0000000000     1.5250000000
 ----------------------------------------------------------------
 Nuclear Repulsion Energy =   103.7836053633 hartrees
 There are       15 alpha and       15 beta electrons
 Requested basis set is 6-31G(d,p)
 There are 28 shells and 80 basis functions

 Total QAlloc Memory Limit 230000 MB
 Mega-Array Size      2002 MB
 MEM_STATIC part      2048 MB
 A cutoff of  1.0D-11 yielded    389 shell pairs
 There are      3269 function pairs
 
 -------------------------------------------------------
 OpenMP Integral Computing Module                       
 Release: version 1.0, May 2013, Q-Chem Inc. Pittsburgh 
 -------------------------------------------------------
 Integral Job Info:
 Integral job number is                      11
 Integral operator is                         1
 short-range coefficients                     0
 long-range coefficients              100000000
 Omega coefficients                           0
 if combine SR and LR in K                    0
 Integral screening is                        0
 Integral computing path is                   2
 max size of driver memory is            800000
 size of driver memory is                593474
 size of scratch memory is              2361544
 max col of scratch BK array               1296
 max len of scratch array in speh3          155
 max len of scratch index in speh4           18
 max int batch size is                      520
 min int batch size is                       52
 fixed nKL is                                52
 max L of basis functions is                  2
 order of int derivative is                   0
 number of shells is                         28
 number of basis is                          80
 number of cartesian basis is                80
 number of contracted shell pairs           389
 number of primitive shell pairs           1532
 maxK2 (contraction) of shell pair           36
 max number of K2 of shell pair               1
 max number of CS2 of shell pair             32
 max number of PS2 of shell pair            150
 mem total for path MDJ                  513890
 -------------------------------------------------------
 Smallest overlap matrix eigenvalue = 3.52E-03

 Scale SEOQF with 1.000000e-01/1.000000e+00/1.000000e-01

 Standard Electronic Orientation quadrupole field applied
 Nucleus-field energy     =    -0.0000000128 hartrees
 Guess from superposition of atomic densities
 Warning:  Energy on first SCF cycle will be non-variational
 SAD guess density has 30.000000 electrons

 -----------------------------------------------------------------------
  General SCF calculation program by
  Eric Jon Sundstrom, Paul Horn, Yuezhi Mao, Dmitri Zuev, Alec White,
  David Stuck, Shaama M.S., Shane Yost, Joonho Lee, David Small,
  Daniel Levine, Susi Lehtola, Hugh Burton, Evgeny Epifanovsky
 -----------------------------------------------------------------------
 Exchange:     0.2000 Hartree-Fock + 0.0800 Slater + 0.7200 B88
 Correlation:  0.1900 VWN1RPA + 0.8100 LYP
 Using SG-1 standard quadrature grid
 using 8 threads for integral computing
 -------------------------------------------------------
 OpenMP Integral computing Module                
 Release: version 1.0, May 2013, Q-Chem Inc. Pittsburgh 
 -------------------------------------------------------
 -------------------------------------------------------
 OpenMP BLAS3 based DFT computing Module                
 Release: version 1.0, May 2013, Q-Chem Inc. Pittsburgh 
 -------------------------------------------------------
 A restricted SCF calculation will be
 performed using DIIS
 SCF converges when DIIS error is below 1.0e-08
 ---------------------------------------
  Cycle       Energy         DIIS error
 ---------------------------------------
    1    -192.5358738851      8.03e-02  
    2    -191.8235461179      1.12e-02  
    3    -191.6410972138      2.05e-02  
    4    -191.9024673951      3.96e-03  
    5    -191.9144920936      7.49e-04  
    6    -191.9148044959      4.01e-04  
    7    -191.9149334805      1.04e-04  
    8    -191.9149418655      2.59e-05  
    9    -191.9149423382      3.81e-06  
   10    -191.9149423482      4.08e-07  
   11    -191.9149423483      6.31e-08  
   12    -191.9149423483      1.46e-08  
   13    -191.9149423483      2.43e-09  Convergence criterion met
 ---------------------------------------
 SCF time:   CPU 6.70s  wall 1.00s 
 SCF   energy in the final basis set =     -191.9149423483
 Total energy in the final basis set =     -191.9149423483
 
 --------------------------------------------------------------
 
                    Orbital Energies (a.u.)
 --------------------------------------------------------------
 
 Alpha MOs
 -- Occupied --
-19.142 -10.272 -10.218 -10.207  -1.038  -0.805  -0.649  -0.580
 -0.487  -0.470  -0.412  -0.398  -0.397  -0.290  -0.254
 -- Virtual --
 -0.064   0.057   0.106   0.113   0.158   0.191   0.266   0.314
  0.354   0.505   0.522   0.546   0.583   0.611   0.632   0.663
  0.676   0.803   0.813   0.848   0.854   0.890   0.940   0.984
  1.055   1.085   1.153   1.260   1.288   1.355   1.448   1.478
  1.540   1.736   1.784   1.796   1.843   1.932   1.959   1.993
  1.994   2.094   2.139   2.182   2.302   2.367   2.459   2.462
  2.525   2.536   2.622   2.704   2.720   2.741   2.894   2.984
  3.042   3.273   3.391   3.523   3.688   3.862   4.126   4.275
  4.562
 --------------------------------------------------------------
 
          Ground-State Mulliken Net Atomic Charges

     Atom                 Charge (a.u.)
  ----------------------------------------
      1 C                    -0.216820
      2 C                    -0.071375
      3 C                     0.276152
      4 O                    -0.417669
      5 H                     0.121651
      6 H                     0.117278
      7 H                     0.116646
      8 H                     0.074137
  ----------------------------------------
  Sum of atomic charges =     0.000000

 -----------------------------------------------------------------
                    Cartesian Multipole Moments
 -----------------------------------------------------------------
    Charge (ESU x 10^10)
                 0.0000
    Dipole Moment (Debye)
         X      -0.6847      Y      -0.0000      Z      -3.0537
       Tot       3.1295
    Quadrupole Moments (Debye-Ang)
        XX     -22.1039     XY       0.0000     YY     -24.2083
        XZ      -4.4266     YZ      -0.0000     ZZ     -36.3543
    Octopole Moments (Debye-Ang^2)
       XXX     -41.3108    XXY       0.0000    XYY     -13.3889
       YYY       0.0000    XXZ     -40.2941    XYZ       0.0000
       YYZ     -35.7565    XZZ     -33.2362    YZZ      -0.0000
       ZZZ    -161.7259
    Hexadecapole Moments (Debye-Ang^3)
      XXXX    -146.4749   XXXY       0.0000   XXYY     -28.8864
      XYYY       0.0000   YYYY     -22.4566   XXXZ    -114.3521
      XXYZ      -0.0000   XYYZ     -34.6874   YYYZ      -0.0000
      XXZZ    -142.8766   XYZZ      -0.0000   YYZZ     -97.4275
      XZZZ    -181.8833   YZZZ      -0.0000   ZZZZ    -774.1321
 -----------------------------------------------------------------
 Calculating analytic gradient of the SCF energy
 Gradient of SCF Energy
            1           2           3           4           5           6
    1   0.0041889   0.0013817   0.0174246  -0.0080082   0.0001824  -0.0019427
    2   0.0000000  -0.0000000  -0.0000000   0.0000000   0.0000000   0.0000000
    3  -0.0087552   0.0265741  -0.0329375  -0.0054285   0.0066056   0.0061705
            7           8
    1  -0.0000788  -0.0131479
    2  -0.0000000  -0.0000000
    3  -0.0076352   0.0154063
 Max gradient component =       3.294E-02
 RMS gradient           =       1.088E-02
 Gradient time:  CPU 3.14 s  wall 0.40 s
 Geometry Optimization Parameters
   NAtoms,    NIC,     NZ,  NCons,   NDum,   NFix, NCnnct, MaxDiis
        8      40       8       0       0       0       0       0


** GEOMETRY OPTIMIZATION IN DELOCALIZED INTERNAL COORDINATES **
   Searching for a Minimum

   Optimization Cycle:   1

                       Coordinates (Angstroms)
     ATOM                X               Y               Z
      1  C         0.0000000000    0.0000000000    0.0000000000
      2  C         0.0000000000    0.0000000000    1.3400000000
      3  C         1.2557368355    0.0000000000    2.0650000000
      4  O         1.2557368355    0.0000000000    3.2850000000
      5  H        -0.9353074361    0.0000000000   -0.5400000000
      6  H         0.9353074361    0.0000000000   -0.5400000000
      7  H        -0.9353074361    0.0000000000    1.8800000000
      8  H         2.1910442716    0.0000000000    1.5250000000
   Point Group: c1    Number of degrees of freedom:    18


   Energy is   -191.914942348


 Attempting to Generate Delocalized Internal Coordinates

 13 Hessian modes will be used to form the next step
  Hessian Eigenvalues:
     0.160000    0.160000    0.160000    0.160000    0.220000    0.220000
     0.359943    0.359943    0.359943    0.359943    0.382450    0.572050
     0.953833

 Minimum Search - Taking Simple RFO Step
 Searching for Lamda that Minimizes Along All modes
 Value Taken    Lamda =  -0.00553582
 Step Taken.  Stepsize is  0.154715

                             Maximum     Tolerance    Cnvgd?
         Gradient           0.022541      0.000300      NO
         Displacement       0.098848      0.001200      NO
         Energy change     *********      0.000001      NO


 New Cartesian Coordinates Obtained by Inverse Iteration

 Displacement from previous Coordinates is:  0.180006
 ----------------------------------------------------------------
             Standard Nuclear Orientation (Angstroms)
    I     Atom           X                Y                Z
 ----------------------------------------------------------------
    1      C      -0.0052968528     0.0000000000    -0.0116308999
    2      C      -0.0068688212     0.0000000000     1.3320540292
    3      C       1.2422762102     0.0000000000     2.1071148213
    4      O       1.2951198666     0.0000000000     3.3289676412
    5      H      -0.9285290502     0.0000000000    -0.5816196709
    6      H       0.9296214717     0.0000000000    -0.5659702220
    7      H      -0.9332804085     0.0000000000     1.8976659455
    8      H       2.1741680907     0.0000000000     1.5084183556
 ----------------------------------------------------------------
 Nuclear Repulsion Energy =   102.6358121719 hartrees
 There are       15 alpha and       15 beta electrons
 Applying Cartesian multipole field
    Component          Value
    ---------          -----
     (2,0,0)        1.00000E-11
     (0,2,0)        2.00000E-10
     (0,0,2)       -3.00000E-11
 Nucleus-field energy     =    -0.0000000131 hartrees
 Requested basis set is 6-31G(d,p)
 There are 28 shells and 80 basis functions
 A cutoff of  1.0D-11 yielded    389 shell pairs
 There are      3269 function pairs
 Smallest overlap matrix eigenvalue = 3.94E-03
 Guess MOs from SCF MO coefficient file

 -----------------------------------------------------------------------
  General SCF calculation program by
  Eric Jon Sundstrom, Paul Horn, Yuezhi Mao, Dmitri Zuev, Alec White,
  David Stuck, Shaama M.S., Shane Yost, Joonho Lee, David Small,
  Daniel Levine, Susi Lehtola, Hugh Burton, Evgeny Epifanovsky
 -----------------------------------------------------------------------
 Exchange:     0.2000 Hartree-Fock + 0.0800 Slater + 0.7200 B88
 Correlation:  0.1900 VWN1RPA + 0.8100 LYP
 Using SG-1 standard quadrature grid
 using 8 threads for integral computing
 -------------------------------------------------------
 OpenMP Integral computing Module                
 Release: version 1.0, May 2013, Q-Chem Inc. Pittsburgh 
 -------------------------------------------------------
 -------------------------------------------------------
 OpenMP BLAS3 based DFT computing Module                
 Release: version 1.0, May 2013, Q-Chem Inc. Pittsburgh 
 -------------------------------------------------------
 A restricted SCF calculation will be
 performed using DIIS
 SCF converges when DIIS error is below 1.0e-08
 ---------------------------------------
  Cycle       Energy         DIIS error
 ---------------------------------------
    1    -191.9163426967      1.09e-03  
    2    -191.9176449833      4.61e-04  
    3    -191.9174574244      7.19e-04  
    4    -191.9177810459      1.09e-04  
    5    -191.9177888896      2.25e-05  
    6    -191.9177891911      1.34e-05  
    7    -191.9177893422      1.24e-06  
    8    -191.9177893432      5.19e-07  
    9    -191.9177893434      3.60e-08  
   10    -191.9177893434      1.09e-08  
   11    -191.9177893434      2.48e-09  Convergence criterion met
 ---------------------------------------
 SCF time:   CPU 5.61s  wall 1.00s 
 SCF   energy in the final basis set =     -191.9177893434
 Total energy in the final basis set =     -191.9177893434
 
 --------------------------------------------------------------
 
                    Orbital Energies (a.u.)
 --------------------------------------------------------------
 
 Alpha MOs
 -- Occupied --
-19.148 -10.278 -10.223 -10.212  -1.038  -0.803  -0.651  -0.575
 -0.479  -0.474  -0.417  -0.396  -0.395  -0.293  -0.257
 -- Virtual --
 -0.068   0.056   0.105   0.112   0.153   0.186   0.263   0.307
  0.352   0.504   0.509   0.549   0.582   0.613   0.633   0.658
  0.671   0.795   0.805   0.845   0.849   0.892   0.937   0.983
  1.048   1.073   1.144   1.271   1.292   1.352   1.449   1.473
  1.541   1.723   1.762   1.789   1.843   1.927   1.935   1.982
  1.992   2.081   2.138   2.174   2.255   2.364   2.438   2.453
  2.539   2.543   2.586   2.693   2.695   2.737   2.908   2.958
  3.021   3.239   3.363   3.481   3.661   3.879   4.113   4.279
  4.551
 --------------------------------------------------------------
 
          Ground-State Mulliken Net Atomic Charges

     Atom                 Charge (a.u.)
  ----------------------------------------
      1 C                    -0.220232
      2 C                    -0.069946
      3 C                     0.277822
      4 O                    -0.413392
      5 H                     0.126328
      6 H                     0.119999
      7 H                     0.114842
      8 H                     0.064579
  ----------------------------------------
  Sum of atomic charges =     0.000000

 -----------------------------------------------------------------
                    Cartesian Multipole Moments
 -----------------------------------------------------------------
    Charge (ESU x 10^10)
                -0.0000
    Dipole Moment (Debye)
         X      -0.8259      Y       0.0000      Z      -3.0973
       Tot       3.2055
    Quadrupole Moments (Debye-Ang)
        XX     -22.7604     XY       0.0000     YY     -24.2937
        XZ      -4.6915     YZ       0.0000     ZZ     -36.2637
    Octopole Moments (Debye-Ang^2)
       XXX     -42.9452    XXY       0.0000    XYY     -13.5450
       YYY       0.0000    XXZ     -41.8536    XYZ       0.0000
       YYZ     -36.1542    XZZ     -34.2174    YZZ       0.0000
       ZZZ    -163.1293
    Hexadecapole Moments (Debye-Ang^3)
      XXXX    -152.6919   XXXY       0.0000   XXYY     -29.4504
      XYYY      -0.0000   YYYY     -22.5797   XXXZ    -120.2229
      XXYZ       0.0000   XYYZ     -35.7853   YYYZ       0.0000
      XXZZ    -148.4253   XYZZ       0.0000   YYZZ     -99.9084
      XZZZ    -188.0940   YZZZ       0.0000   ZZZZ    -792.0987
 -----------------------------------------------------------------
 Calculating analytic gradient of the SCF energy
 Gradient of SCF Energy
            1           2           3           4           5           6
    1  -0.0007211   0.0018613  -0.0016535   0.0021331  -0.0007850   0.0001308
    2   0.0000000   0.0000000  -0.0000000   0.0000000  -0.0000000  -0.0000000
    3  -0.0083901   0.0075541  -0.0129551   0.0097529   0.0010004   0.0012499
            7           8
    1   0.0005023  -0.0014678
    2  -0.0000000   0.0000000
    3  -0.0014714   0.0032593
 Max gradient component =       1.296E-02
 RMS gradient           =       4.184E-03
 Gradient time:  CPU 2.91 s  wall 0.37 s
 Geometry Optimization Parameters
   NAtoms,    NIC,     NZ,  NCons,   NDum,   NFix, NCnnct, MaxDiis
        8      40       8       0       0       0       0       0

 Cartesian Hessian Update
 Hessian Updated using BFGS Update


** GEOMETRY OPTIMIZATION IN DELOCALIZED INTERNAL COORDINATES **
   Searching for a Minimum

   Optimization Cycle:   2

                       Coordinates (Angstroms)
     ATOM                X               Y               Z
      1  C        -0.0052968528    0.0000000000   -0.0116308999
      2  C        -0.0068688212    0.0000000000    1.3320540292
      3  C         1.2422762102    0.0000000000    2.1071148213
      4  O         1.2951198666    0.0000000000    3.3289676412
      5  H        -0.9285290502    0.0000000000   -0.5816196709
      6  H         0.9296214717    0.0000000000   -0.5659702220
      7  H        -0.9332804085    0.0000000000    1.8976659455
      8  H         2.1741680907    0.0000000000    1.5084183556
   Point Group: c1    Number of degrees of freedom:    18


   Energy is   -191.917789343

 Hessian Updated using BFGS Update

  9 Hessian modes will be used to form the next step
  Hessian Eigenvalues:
     0.140079    0.160339    0.218739    0.242945    0.338500    0.360505
     0.381160    0.591418    1.000555

 Minimum Search - Taking Simple RFO Step
 Searching for Lamda that Minimizes Along All modes
 Value Taken    Lamda =  -0.00035152
 Step Taken.  Stepsize is  0.037471

                             Maximum     Tolerance    Cnvgd?
         Gradient           0.008737      0.000300      NO
         Displacement       0.027776      0.001200      NO
         Energy change     -0.002847      0.000001      NO


 New Cartesian Coordinates Obtained by Inverse Iteration

 Displacement from previous Coordinates is:  0.051304
 ----------------------------------------------------------------
             Standard Nuclear Orientation (Angstroms)
    I     Atom           X                Y                Z
 ----------------------------------------------------------------
    1      C      -0.0025327545     0.0000000000    -0.0042550342
    2      C      -0.0114796809     0.0000000000     1.3336962835
    3      C       1.2406902674     0.0000000000     2.1083881684
    4      O       1.2929698789     0.0000000000     3.3247440173
    5      H      -0.9181431290     0.0000000000    -0.5865631103
    6      H       0.9335454262     0.0000000000    -0.5590312350
    7      H      -0.9357680661     0.0000000000     1.9068813060
    8      H       2.1679285645     0.0000000000     1.4911396043
 ----------------------------------------------------------------
 Nuclear Repulsion Energy =   102.8228431443 hartrees
 There are       15 alpha and       15 beta electrons
 Applying Cartesian multipole field
    Component          Value
    ---------          -----
     (2,0,0)        1.00000E-11
     (0,2,0)        2.00000E-10
     (0,0,2)       -3.00000E-11
 Nucleus-field energy     =    -0.0000000131 hartrees
 Requested basis set is 6-31G(d,p)
 There are 28 shells and 80 basis functions
 A cutoff of  1.0D-11 yielded    389 shell pairs
 There are      3269 function pairs
 Smallest overlap matrix eigenvalue = 3.90E-03
 Guess MOs from SCF MO coefficient file

 -----------------------------------------------------------------------
  General SCF calculation program by
  Eric Jon Sundstrom, Paul Horn, Yuezhi Mao, Dmitri Zuev, Alec White,
  David Stuck, Shaama M.S., Shane Yost, Joonho Lee, David Small,
  Daniel Levine, Susi Lehtola, Hugh Burton, Evgeny Epifanovsky
 -----------------------------------------------------------------------
 Exchange:     0.2000 Hartree-Fock + 0.0800 Slater + 0.7200 B88
 Correlation:  0.1900 VWN1RPA + 0.8100 LYP
 Using SG-1 standard quadrature grid
 using 8 threads for integral computing
 -------------------------------------------------------
 OpenMP Integral computing Module                
 Release: version 1.0, May 2013, Q-Chem Inc. Pittsburgh 
 -------------------------------------------------------
 -------------------------------------------------------
 OpenMP BLAS3 based DFT computing Module                
 Release: version 1.0, May 2013, Q-Chem Inc. Pittsburgh 
 -------------------------------------------------------
 A restricted SCF calculation will be
 performed using DIIS
 SCF converges when DIIS error is below 1.0e-08
 ---------------------------------------
  Cycle       Energy         DIIS error
 ---------------------------------------
    1    -191.9179127614      2.52e-04  
    2    -191.9179761310      1.69e-04  
    3    -191.9179742946      1.74e-04  
    4    -191.9179926302      2.67e-05  
    5    -191.9179931383      1.00e-05  
    6    -191.9179932157      2.97e-06  
    7    -191.9179932231      3.94e-07  
    8    -191.9179932232      1.53e-07  
    9    -191.9179932232      9.91e-09  Convergence criterion met
 ---------------------------------------
 SCF time:   CPU 4.68s  wall 1.00s 
 SCF   energy in the final basis set =     -191.9179932232
 Total energy in the final basis set =     -191.9179932232
 
 --------------------------------------------------------------
 
                    Orbital Energies (a.u.)
 --------------------------------------------------------------
 
 Alpha MOs
 -- Occupied --
-19.148 -10.278 -10.222 -10.211  -1.041  -0.804  -0.650  -0.574
 -0.478  -0.475  -0.418  -0.397  -0.394  -0.294  -0.257
 -- Virtual --
 -0.066   0.057   0.106   0.111   0.152   0.186   0.262   0.309
  0.353   0.504   0.508   0.552   0.582   0.614   0.633   0.660
  0.676   0.793   0.804   0.842   0.847   0.894   0.937   0.982
  1.049   1.074   1.144   1.269   1.294   1.352   1.451   1.474
  1.545   1.722   1.760   1.788   1.842   1.926   1.939   1.986
  1.993   2.084   2.138   2.174   2.256   2.363   2.432   2.453
  2.545   2.548   2.583   2.689   2.699   2.741   2.914   2.949
  3.026   3.234   3.360   3.474   3.670   3.887   4.118   4.283
  4.552
 --------------------------------------------------------------
 
          Ground-State Mulliken Net Atomic Charges

     Atom                 Charge (a.u.)
  ----------------------------------------
      1 C                    -0.221456
      2 C                    -0.068789
      3 C                     0.279347
      4 O                    -0.410850
      5 H                     0.125667
      6 H                     0.119420
      7 H                     0.114500
      8 H                     0.062161
  ----------------------------------------
  Sum of atomic charges =     0.000000

 -----------------------------------------------------------------
                    Cartesian Multipole Moments
 -----------------------------------------------------------------
    Charge (ESU x 10^10)
                -0.0000
    Dipole Moment (Debye)
         X      -0.8229      Y       0.0000      Z      -3.0570
       Tot       3.1658
    Quadrupole Moments (Debye-Ang)
        XX     -22.8276     XY      -0.0000     YY     -24.2793
        XZ      -4.6693     YZ       0.0000     ZZ     -36.0680
    Octopole Moments (Debye-Ang^2)
       XXX     -43.0030    XXY      -0.0000    XYY     -13.5173
       YYY       0.0000    XXZ     -41.8696    XYZ      -0.0000
       YYZ     -36.1455    XZZ     -34.0513    YZZ       0.0000
       ZZZ    -162.4438
    Hexadecapole Moments (Debye-Ang^3)
      XXXX    -152.9143   XXXY      -0.0000   XXYY     -29.3971
      XYYY      -0.0000   YYYY     -22.5461   XXXZ    -119.9136
      XXYZ      -0.0000   XYYZ     -35.5990   YYYZ       0.0000
      XXZZ    -148.0008   XYZZ      -0.0000   YYZZ     -99.6805
      XZZZ    -186.8812   YZZZ      -0.0000   ZZZZ    -788.4070
 -----------------------------------------------------------------
 Calculating analytic gradient of the SCF energy
 Gradient of SCF Energy
            1           2           3           4           5           6
    1  -0.0001805   0.0016069  -0.0014761   0.0002460  -0.0002272   0.0002053
    2   0.0000000   0.0000000  -0.0000000  -0.0000000  -0.0000000  -0.0000000
    3  -0.0008881   0.0005696  -0.0031085   0.0028923   0.0003715   0.0000778
            7           8
    1  -0.0002635   0.0000892
    2  -0.0000000   0.0000000
    3   0.0000961  -0.0000107
 Max gradient component =       3.109E-03
 RMS gradient           =       1.007E-03
 Gradient time:  CPU 2.92 s  wall 0.37 s
 Geometry Optimization Parameters
   NAtoms,    NIC,     NZ,  NCons,   NDum,   NFix, NCnnct, MaxDiis
        8      40       8       0       0       0       0       0

 Cartesian Hessian Update
 Hessian Updated using BFGS Update


** GEOMETRY OPTIMIZATION IN DELOCALIZED INTERNAL COORDINATES **
   Searching for a Minimum

   Optimization Cycle:   3

                       Coordinates (Angstroms)
     ATOM                X               Y               Z
      1  C        -0.0025327545    0.0000000000   -0.0042550342
      2  C        -0.0114796809    0.0000000000    1.3336962835
      3  C         1.2406902674    0.0000000000    2.1083881684
      4  O         1.2929698789    0.0000000000    3.3247440173
      5  H        -0.9181431290    0.0000000000   -0.5865631103
      6  H         0.9335454262    0.0000000000   -0.5590312350
      7  H        -0.9357680661    0.0000000000    1.9068813060
      8  H         2.1679285645    0.0000000000    1.4911396043
   Point Group: c1    Number of degrees of freedom:    18


   Energy is   -191.917993223

 Hessian Updated using BFGS Update

 11 Hessian modes will be used to form the next step
  Hessian Eigenvalues:
     0.130587    0.160209    0.162760    0.216356    0.239467    0.336381
     0.360077    0.360990    0.385316    0.600349    0.892617

 Minimum Search - Taking Simple RFO Step
 Searching for Lamda that Minimizes Along All modes
 Value Taken    Lamda =  -0.00002400
 Step Taken.  Stepsize is  0.009706

                             Maximum     Tolerance    Cnvgd?
         Gradient           0.001407      0.000300      NO
         Displacement       0.005023      0.001200      NO
         Energy change     -0.000204      0.000001      NO


 New Cartesian Coordinates Obtained by Inverse Iteration

 Displacement from previous Coordinates is:  0.016564
 ----------------------------------------------------------------
             Standard Nuclear Orientation (Angstroms)
    I     Atom           X                Y                Z
 ----------------------------------------------------------------
    1      C      -0.0028543201     0.0000000000    -0.0024776297
    2      C      -0.0142855846     0.0000000000     1.3347961498
    3      C       1.2409614298     0.0000000000     2.1085462643
    4      O       1.2951142604     0.0000000000     3.3227259139
    5      H      -0.9149909038     0.0000000000    -0.5903525393
    6      H       0.9342188100     0.0000000000    -0.5553540916
    7      H      -0.9376253959     0.0000000000     1.9088789231
    8      H       2.1666722109     0.0000000000     1.4882370095
 ----------------------------------------------------------------
 Nuclear Repulsion Energy =   102.8562825330 hartrees
 There are       15 alpha and       15 beta electrons
 Applying Cartesian multipole field
    Component          Value
    ---------          -----
     (2,0,0)        1.00000E-11
     (0,2,0)        2.00000E-10
     (0,0,2)       -3.00000E-11
 Nucleus-field energy     =    -0.0000000131 hartrees
 Requested basis set is 6-31G(d,p)
 There are 28 shells and 80 basis functions
 A cutoff of  1.0D-11 yielded    389 shell pairs
 There are      3269 function pairs
 Smallest overlap matrix eigenvalue = 3.90E-03
 Guess MOs from SCF MO coefficient file

 -----------------------------------------------------------------------
  General SCF calculation program by
  Eric Jon Sundstrom, Paul Horn, Yuezhi Mao, Dmitri Zuev, Alec White,
  David Stuck, Shaama M.S., Shane Yost, Joonho Lee, David Small,
  Daniel Levine, Susi Lehtola, Hugh Burton, Evgeny Epifanovsky
 -----------------------------------------------------------------------
 Exchange:     0.2000 Hartree-Fock + 0.0800 Slater + 0.7200 B88
 Correlation:  0.1900 VWN1RPA + 0.8100 LYP
 Using SG-1 standard quadrature grid
 using 8 threads for integral computing
 -------------------------------------------------------
 OpenMP Integral computing Module                
 Release: version 1.0, May 2013, Q-Chem Inc. Pittsburgh 
 -------------------------------------------------------
 -------------------------------------------------------
 OpenMP BLAS3 based DFT computing Module                
 Release: version 1.0, May 2013, Q-Chem Inc. Pittsburgh 
 -------------------------------------------------------
 A restricted SCF calculation will be
 performed using DIIS
 SCF converges when DIIS error is below 1.0e-08
 ---------------------------------------
  Cycle       Energy         DIIS error
 ---------------------------------------
    1    -191.9179950858      9.30e-05  
    2    -191.9180049255      4.49e-05  
    3    -191.9180036700      6.30e-05  
    4    -191.9180061122      6.95e-06  
    5    -191.9180061379      3.72e-06  
    6    -191.9180061494      5.26e-07  
    7    -191.9180061496      1.09e-07  
    8    -191.9180061496      8.98e-09  Convergence criterion met
 ---------------------------------------
 SCF time:   CPU 4.10s  wall 1.00s 
 SCF   energy in the final basis set =     -191.9180061496
 Total energy in the final basis set =     -191.9180061496
 
 --------------------------------------------------------------
 
                    Orbital Energies (a.u.)
 --------------------------------------------------------------
 
 Alpha MOs
 -- Occupied --
-19.148 -10.278 -10.222 -10.211  -1.043  -0.804  -0.649  -0.574
 -0.478  -0.475  -0.419  -0.398  -0.394  -0.294  -0.257
 -- Virtual --
 -0.066   0.057   0.106   0.111   0.152   0.186   0.263   0.310
  0.352   0.504   0.508   0.553   0.582   0.614   0.633   0.660
  0.678   0.793   0.804   0.842   0.847   0.895   0.937   0.982
  1.049   1.074   1.143   1.267   1.294   1.352   1.451   1.474
  1.547   1.721   1.760   1.788   1.842   1.926   1.940   1.986
  1.995   2.085   2.139   2.174   2.256   2.364   2.431   2.453
  2.547   2.549   2.583   2.688   2.700   2.742   2.916   2.949
  3.028   3.233   3.360   3.473   3.673   3.889   4.119   4.284
  4.552
 --------------------------------------------------------------
 
          Ground-State Mulliken Net Atomic Charges

     Atom                 Charge (a.u.)
  ----------------------------------------
      1 C                    -0.221666
      2 C                    -0.069096
      3 C                     0.279645
      4 O                    -0.409715
      5 H                     0.125486
      6 H                     0.119203
      7 H                     0.114433
      8 H                     0.061710
  ----------------------------------------
  Sum of atomic charges =     0.000000

 -----------------------------------------------------------------
                    Cartesian Multipole Moments
 -----------------------------------------------------------------
    Charge (ESU x 10^10)
                -0.0000
    Dipole Moment (Debye)
         X      -0.8231      Y       0.0000      Z      -3.0417
       Tot       3.1511
    Quadrupole Moments (Debye-Ang)
        XX     -22.8424     XY       0.0000     YY     -24.2762
        XZ      -4.6646     YZ       0.0000     ZZ     -35.9974
    Octopole Moments (Debye-Ang^2)
       XXX     -43.0120    XXY       0.0000    XYY     -13.5078
       YYY       0.0000    XXZ     -41.8682    XYZ       0.0000
       YYZ     -36.1372    XZZ     -34.0317    YZZ       0.0000
       ZZZ    -162.1874
    Hexadecapole Moments (Debye-Ang^3)
      XXXX    -153.1710   XXXY       0.0000   XXYY     -29.4190
      XYYY       0.0000   YYYY     -22.5405   XXXZ    -119.9430
      XXYZ       0.0000   XYYZ     -35.5811   YYYZ       0.0000
      XXZZ    -147.9349   XYZZ       0.0000   YYZZ     -99.5850
      XZZZ    -186.7331   YZZZ       0.0000   ZZZZ    -787.0237
 -----------------------------------------------------------------
 Calculating analytic gradient of the SCF energy
 Gradient of SCF Energy
            1           2           3           4           5           6
    1  -0.0000007   0.0003796  -0.0004408  -0.0000052  -0.0000250  -0.0000204
    2  -0.0000000  -0.0000000   0.0000000   0.0000000   0.0000000  -0.0000000
    3   0.0000988  -0.0001211   0.0001235  -0.0000891   0.0000292  -0.0000301
            7           8
    1  -0.0000612   0.0001737
    2   0.0000000  -0.0000000
    3   0.0000753  -0.0000866
 Max gradient component =       4.408E-04
 RMS gradient           =       1.348E-04
 Gradient time:  CPU 2.92 s  wall 0.37 s
 Geometry Optimization Parameters
   NAtoms,    NIC,     NZ,  NCons,   NDum,   NFix, NCnnct, MaxDiis
        8      40       8       0       0       0       0       0

 Cartesian Hessian Update
 Hessian Updated using BFGS Update


** GEOMETRY OPTIMIZATION IN DELOCALIZED INTERNAL COORDINATES **
   Searching for a Minimum

   Optimization Cycle:   4

                       Coordinates (Angstroms)
     ATOM                X               Y               Z
      1  C        -0.0028543201    0.0000000000   -0.0024776297
      2  C        -0.0142855846    0.0000000000    1.3347961498
      3  C         1.2409614298    0.0000000000    2.1085462643
      4  O         1.2951142604    0.0000000000    3.3227259139
      5  H        -0.9149909038    0.0000000000   -0.5903525393
      6  H         0.9342188100    0.0000000000   -0.5553540916
      7  H        -0.9376253959    0.0000000000    1.9088789231
      8  H         2.1666722109    0.0000000000    1.4882370095
   Point Group: c1    Number of degrees of freedom:    18


   Energy is   -191.918006150

 Hessian Updated using BFGS Update

 13 Hessian modes will be used to form the next step
  Hessian Eigenvalues:
     0.125687    0.159044    0.160236    0.162869    0.205606    0.236488
     0.341965    0.359470    0.360419    0.361091    0.364959    0.603416
     0.948003

 Minimum Search - Taking Simple RFO Step
 Searching for Lamda that Minimizes Along All modes
 Value Taken    Lamda =   0.00000000
 Step Taken.  Stepsize is  0.001945

                             Maximum     Tolerance    Cnvgd?
         Gradient           0.000235      0.000300     YES
         Displacement       0.001339      0.001200      NO
         Energy change     -0.000013      0.000001      NO


 New Cartesian Coordinates Obtained by Inverse Iteration

 Displacement from previous Coordinates is:  0.004679
 ----------------------------------------------------------------
             Standard Nuclear Orientation (Angstroms)
    I     Atom           X                Y                Z
 ----------------------------------------------------------------
    1      C      -0.0029090897     0.0000000000    -0.0021851934
    2      C      -0.0150218969     0.0000000000     1.3351358012
    3      C       1.2410627391     0.0000000000     2.1083828206
    4      O       1.2960314926     0.0000000000     3.3225016995
    5      H      -0.9143543400     0.0000000000    -0.5911199459
    6      H       0.9347204181     0.0000000000    -0.5541311296
    7      H      -0.9383002946     0.0000000000     1.9090468051
    8      H       2.1659814780     0.0000000000     1.4873691427
 ----------------------------------------------------------------
 Nuclear Repulsion Energy =   102.8528490457 hartrees
 There are       15 alpha and       15 beta electrons
 Applying Cartesian multipole field
    Component          Value
    ---------          -----
     (2,0,0)        1.00000E-11
     (0,2,0)        2.00000E-10
     (0,0,2)       -3.00000E-11
 Nucleus-field energy     =    -0.0000000131 hartrees
 Requested basis set is 6-31G(d,p)
 There are 28 shells and 80 basis functions
 A cutoff of  1.0D-11 yielded    389 shell pairs
 There are      3269 function pairs
 Smallest overlap matrix eigenvalue = 3.90E-03
 Guess MOs from SCF MO coefficient file

 -----------------------------------------------------------------------
  General SCF calculation program by
  Eric Jon Sundstrom, Paul Horn, Yuezhi Mao, Dmitri Zuev, Alec White,
  David Stuck, Shaama M.S., Shane Yost, Joonho Lee, David Small,
  Daniel Levine, Susi Lehtola, Hugh Burton, Evgeny Epifanovsky
 -----------------------------------------------------------------------
 Exchange:     0.2000 Hartree-Fock + 0.0800 Slater + 0.7200 B88
 Correlation:  0.1900 VWN1RPA + 0.8100 LYP
 Using SG-1 standard quadrature grid
 using 8 threads for integral computing
 -------------------------------------------------------
 OpenMP Integral computing Module                
 Release: version 1.0, May 2013, Q-Chem Inc. Pittsburgh 
 -------------------------------------------------------
 -------------------------------------------------------
 OpenMP BLAS3 based DFT computing Module                
 Release: version 1.0, May 2013, Q-Chem Inc. Pittsburgh 
 -------------------------------------------------------
 A restricted SCF calculation will be
 performed using DIIS
 SCF converges when DIIS error is below 1.0e-08
 ---------------------------------------
  Cycle       Energy         DIIS error
 ---------------------------------------
    1    -191.9180059596      2.30e-05  
    2    -191.9180066224      3.41e-06  
    3    -191.9180066172      4.50e-06  
    4    -191.9180066322      1.13e-06  
    5    -191.9180066330      3.17e-07  
    6    -191.9180066331      1.32e-07  
    7    -191.9180066331      3.79e-08  
    8    -191.9180066331      6.17e-09  Convergence criterion met
 ---------------------------------------
 SCF time:   CPU 4.11s  wall 1.00s 
 SCF   energy in the final basis set =     -191.9180066331
 Total energy in the final basis set =     -191.9180066331
 
 --------------------------------------------------------------
 
                    Orbital Energies (a.u.)
 --------------------------------------------------------------
 
 Alpha MOs
 -- Occupied --
-19.148 -10.278 -10.222 -10.211  -1.043  -0.804  -0.649  -0.574
 -0.478  -0.475  -0.419  -0.398  -0.394  -0.294  -0.257
 -- Virtual --
 -0.066   0.056   0.106   0.111   0.152   0.186   0.263   0.310
  0.352   0.504   0.508   0.553   0.582   0.614   0.633   0.660
  0.678   0.793   0.804   0.842   0.847   0.895   0.937   0.982
  1.049   1.074   1.143   1.267   1.294   1.352   1.452   1.474
  1.547   1.720   1.760   1.788   1.841   1.927   1.940   1.986
  1.995   2.086   2.139   2.173   2.256   2.364   2.431   2.453
  2.547   2.549   2.582   2.688   2.700   2.743   2.916   2.949
  3.028   3.233   3.360   3.473   3.673   3.889   4.119   4.284
  4.552
 --------------------------------------------------------------
 
          Ground-State Mulliken Net Atomic Charges

     Atom                 Charge (a.u.)
  ----------------------------------------
      1 C                    -0.221686
      2 C                    -0.069116
      3 C                     0.279650
      4 O                    -0.409714
      5 H                     0.125473
      6 H                     0.119168
      7 H                     0.114441
      8 H                     0.061785
  ----------------------------------------
  Sum of atomic charges =     0.000000

 -----------------------------------------------------------------
                    Cartesian Multipole Moments
 -----------------------------------------------------------------
    Charge (ESU x 10^10)
                -0.0000
    Dipole Moment (Debye)
         X      -0.8241      Y      -0.0000      Z      -3.0408
       Tot       3.1505
    Quadrupole Moments (Debye-Ang)
        XX     -22.8447     XY      -0.0000     YY     -24.2766
        XZ      -4.6691     YZ      -0.0000     ZZ     -35.9940
    Octopole Moments (Debye-Ang^2)
       XXX     -43.0201    XXY      -0.0000    XYY     -13.5081
       YYY      -0.0000    XXZ     -41.8782    XYZ      -0.0000
       YYZ     -36.1384    XZZ     -34.0516    YZZ      -0.0000
       ZZZ    -162.1739
    Hexadecapole Moments (Debye-Ang^3)
      XXXX    -153.2513   XXXY      -0.0000   XXYY     -29.4293
      XYYY      -0.0000   YYYY     -22.5413   XXXZ    -119.9927
      XXYZ      -0.0000   XYYZ     -35.5868   YYYZ      -0.0000
      XXZZ    -147.9733   XYZZ      -0.0000   YYZZ     -99.5767
      XZZZ    -186.7999   YZZZ      -0.0000   ZZZZ    -786.8983
 -----------------------------------------------------------------
 Calculating analytic gradient of the SCF energy
 Gradient of SCF Energy
            1           2           3           4           5           6
    1  -0.0000030   0.0000567  -0.0000564  -0.0000207  -0.0000011  -0.0000133
    2   0.0000000   0.0000000   0.0000000  -0.0000000  -0.0000000  -0.0000000
    3   0.0000543  -0.0000531   0.0001030  -0.0000813  -0.0000027  -0.0000143
            7           8
    1  -0.0000036   0.0000415
    2  -0.0000000  -0.0000000
    3   0.0000164  -0.0000223
 Max gradient component =       1.030E-04
 RMS gradient           =       3.691E-05
 Gradient time:  CPU 2.87 s  wall 0.36 s
 Geometry Optimization Parameters
   NAtoms,    NIC,     NZ,  NCons,   NDum,   NFix, NCnnct, MaxDiis
        8      40       8       0       0       0       0       0

 Cartesian Hessian Update
 Hessian Updated using BFGS Update


** GEOMETRY OPTIMIZATION IN DELOCALIZED INTERNAL COORDINATES **
   Searching for a Minimum

   Optimization Cycle:   5

                       Coordinates (Angstroms)
     ATOM                X               Y               Z
      1  C        -0.0029090897    0.0000000000   -0.0021851934
      2  C        -0.0150218969    0.0000000000    1.3351358012
      3  C         1.2410627391    0.0000000000    2.1083828206
      4  O         1.2960314926    0.0000000000    3.3225016995
      5  H        -0.9143543400    0.0000000000   -0.5911199459
      6  H         0.9347204181    0.0000000000   -0.5541311296
      7  H        -0.9383002946    0.0000000000    1.9090468051
      8  H         2.1659814780    0.0000000000    1.4873691427
   Point Group: c1    Number of degrees of freedom:    18


   Energy is   -191.918006633

 Hessian Updated using BFGS Update

 13 Hessian modes will be used to form the next step
  Hessian Eigenvalues:
     0.122102    0.145970    0.160211    0.162986    0.182238    0.240436
     0.334898    0.359016    0.360098    0.360894    0.370234    0.596952
     0.932275

 Minimum Search - Taking Simple RFO Step
 Searching for Lamda that Minimizes Along All modes
 Value Taken    Lamda =   0.00000000
 Step Taken.  Stepsize is  0.000680

                             Maximum     Tolerance    Cnvgd?
         Gradient           0.000070      0.000300     YES
         Displacement       0.000549      0.001200     YES
         Energy change     -0.000000      0.000001     YES


                       Distance Matrix (Angstroms)
             C (  1)   C (  2)   C (  3)   O (  4)   H (  5)   H (  6)
   C (  2)  1.337376
   C (  3)  2.449890  1.475012
   O (  4)  3.569424  2.380858  1.215363
   H (  5)  1.085162  2.125855  3.454437  4.494690
   H (  6)  1.088023  2.114554  2.680080  3.893434  1.849445
   H (  7)  2.127854  1.087114  2.188460  2.643878  2.500281  3.094423
   H (  8)  2.631133  2.186310  1.114061  2.030893  3.715991  2.384057
             H (  7)
   H (  8)  3.132791
 
 Final energy is   -191.918006633091     


 ******************************
 **  OPTIMIZATION CONVERGED  **
 ******************************

                       Coordinates (Angstroms)
     ATOM                X               Y               Z
      1  C        -0.0029090897    0.0000000000   -0.0021851934
      2  C        -0.0150218969    0.0000000000    1.3351358012
      3  C         1.2410627391    0.0000000000    2.1083828206
      4  O         1.2960314926    0.0000000000    3.3225016995
      5  H        -0.9143543400    0.0000000000   -0.5911199459
      6  H         0.9347204181    0.0000000000   -0.5541311296
      7  H        -0.9383002946    0.0000000000    1.9090468051
      8  H         2.1659814780    0.0000000000    1.4873691427

Z-matrix Print:
$molecule
0 1
C 
H  1 1.114061
O  1 1.215363 2 121.286130
C  1 1.475012 2 114.505100 3 -180.000000 0
H  4 1.087114 1 116.518368 2 -180.000000 0
C  4 1.337376 1 121.097553 2 -0.000000 0
H  6 1.085162 4 122.349775 1 -180.000000 0
H  6 1.088023 4 121.002606 1 -0.000000 0
$end

 
 --------------------------------------------------------------
 
                    Orbital Energies (a.u.)
 --------------------------------------------------------------
 
 Alpha MOs
 -- Occupied --
-19.148 -10.278 -10.222 -10.211  -1.043  -0.804  -0.649  -0.574
 -0.478  -0.475  -0.419  -0.398  -0.394  -0.294  -0.257
 -- Virtual --
 -0.066   0.056   0.106   0.111   0.152   0.186   0.263   0.310
  0.352   0.504   0.508   0.553   0.582   0.614   0.633   0.660
  0.678   0.793   0.804   0.842   0.847   0.895   0.937   0.982
  1.049   1.074   1.143   1.267   1.294   1.352   1.452   1.474
  1.547   1.720   1.760   1.788   1.841   1.927   1.940   1.986
  1.995   2.086   2.139   2.173   2.256   2.364   2.431   2.453
  2.547   2.549   2.582   2.688   2.700   2.743   2.916   2.949
  3.028   3.233   3.360   3.473   3.673   3.889   4.119   4.284
  4.552
 --------------------------------------------------------------
 
          Ground-State Mulliken Net Atomic Charges

     Atom                 Charge (a.u.)
  ----------------------------------------
      1 C                    -0.221686
      2 C                    -0.069116
      3 C                     0.279650
      4 O                    -0.409714
      5 H                     0.125473
      6 H                     0.119168
      7 H                     0.114441
      8 H                     0.061785
  ----------------------------------------
  Sum of atomic charges =     0.000000

 -----------------------------------------------------------------
                    Cartesian Multipole Moments
 -----------------------------------------------------------------
    Charge (ESU x 10^10)
                -0.0000
    Dipole Moment (Debye)
         X      -0.8241      Y      -0.0000      Z      -3.0408
       Tot       3.1505
    Quadrupole Moments (Debye-Ang)
        XX     -22.8447     XY      -0.0000     YY     -24.2766
        XZ      -4.6691     YZ      -0.0000     ZZ     -35.9940
    Octopole Moments (Debye-Ang^2)
       XXX     -43.0201    XXY      -0.0000    XYY     -13.5081
       YYY      -0.0000    XXZ     -41.8782    XYZ      -0.0000
       YYZ     -36.1384    XZZ     -34.0516    YZZ      -0.0000
       ZZZ    -162.1739
    Hexadecapole Moments (Debye-Ang^3)
      XXXX    -153.2513   XXXY      -0.0000   XXYY     -29.4293
      XYYY      -0.0000   YYYY     -22.5413   XXXZ    -119.9927
      XXYZ      -0.0000   XYYZ     -35.5868   YYYZ      -0.0000
      XXZZ    -147.9733   XYZZ      -0.0000   YYZZ     -99.5767
      XZZZ    -186.7999   YZZZ      -0.0000   ZZZZ    -786.8983
 -----------------------------------------------------------------
Archival summary:
1\1\node1\OPT\ProcedureUnspecified\6-31G**\134\songzl\ThuApr619:04:102023ThuApr619:04:102023\0\\#,OPT,ProcedureUnspecified,6-31G**,\\0,1\C\H,1,1.11406\O,1,1.21536,2,121.286\C,1,1.47501,2,114.505,3,-180,0\H,4,1.08711,1,116.518,2,-180,0\C,4,1.33738,1,121.098,2,-0,0\H,6,1.08516,4,122.35,1,-180,0\H,6,1.08802,4,121.003,1,-0,0\\\@

 Total job time:  5.46s(wall), 42.98s(cpu) 
 Thu Apr  6 19:04:10 2023

        *************************************************************
        *                                                           *
        *  Thank you very much for using Q-Chem.  Have a nice day.  *
        *                                                           *
        *************************************************************


