
Running Job 1 of 1 baker_set_reactant.inp
qchem baker_set_reactant.inp_8060.0 /tmp/songzl/qchem_baker_set/qchem8060/ 1
/apps/apps/qchem/qc51/exe/qcprog.exe_s baker_set_reactant.inp_8060.0 /tmp/songzl/qchem_baker_set/qchem8060/
Check license passed

                  Welcome to Q-Chem
     A Quantum Leap Into The Future Of Chemistry


 Q-Chem 5.1, Q-Chem, Inc., Pleasanton, CA (2018)

 Yihan Shao,  Zhengting Gan,  E. Epifanovsky,  A. T. B. Gilbert,  M. Wormit,  
 J. Kussmann,  A. W. Lange,  A. Behn,  Jia Deng,  Xintian Feng,  D. Ghosh,  
 M. Goldey,  P. R. Horn,  L. D. Jacobson,  I. Kaliman,  T. Kus,  A. Landau,  
 Jie Liu,  E. I. Proynov,  R. M. Richard,  R. P. Steele,  E. J. Sundstrom,  
 H. L. Woodcock III,  P. M. Zimmerman,  D. Zuev,  B. Albrecht,  E. Alguire,  
 S. A. Baeppler,  D. Barton,  Z. Benda,  Y. A. Bernard,  E. J. Berquist,  
 K. B. Bravaya,  H. Burton,  D. Casanova,  Chun-Min Chang,  Yunqing Chen,  
 A. Chien,  K. D. Closser,  M. P. Coons,  S. Coriani,  S. Dasgupta,  
 A. L. Dempwolff,  M. Diedenhofen,  Hainam Do,  R. G. Edgar,  Po-Tung Fang,  
 S. Faraji,  S. Fatehi,  Qingguo Feng,  K. D. Fenk,  J. Fosso-Tande,  
 Qinghui Ge,  A. Ghysels,  G. Gidofalvi,  J. Gomes,  J. Gonthier,  A. Gunina,  
 D. Hait,  M. W. D. Hanson-Heine,  P. H. P. Harbach,  A. W. Hauser,  
 J. E. Herr,  E. G. Hohenstein,  Z. C. Holden,  Kerwin Hui,  B. C. Huynh,  
 T.-C. Jagau,  Hyunjun Ji,  B. Kaduk,  K. Khistyaev,  Jaehoon Kim,  
 P. Klunzinger,  K. Koh,  D. Kosenkov,  L. Koulias,  T. Kowalczyk,  
 C. M. Krauter,  A. Kunitsa,  Ka Un Lao,  A. Laurent,  K. V. Lawler,  
 Joonho Lee,  D. Lefrancois,  S. Lehtola,  D. S. Levine,  Yi-Pei Li,  
 You-Sheng Lin,  Fenglai Liu,  E. Livshits,  A. Luenser,  P. Manohar,  
 E. Mansoor,  S. F. Manzer,  Shan-Ping Mao,  Yuezhi Mao,  N. Mardirossian,  
 A. V. Marenich,  T. Markovich,  L. A. Martinez-Martinez,  S. A. Maurer,  
 N. J. Mayhall,  S. C. McKenzie,  J.-M. Mewes,  A. F. Morrison,  
 J. W. Mullinax,  K. Nanda,  T. S. Nguyen-Beck,  R. Olivares-Amaya,  
 J. A. Parkhill,  T. M. Perrine,  F. Plasser,  P. Pokhilko,  S. Prager,  
 A. Prociuk,  E. Ramos,  D. R. Rehn,  F. Rob,  M. Schneider,  N. Sergueev,  
 S. M. Sharada,  S. Sharma,  D. W. Small,  T. Stauch,  T. Stein,  
 Yu-Chuan Su,  A. J. W. Thom,  A. Tkatchenko,  T. Tsuchimochi,  N. M. Tubman,  
 L. Vogt,  M. L. Vidal,  O. Vydrov,  M. A. Watson,  J. Wenzel,  
 M. de Wergifosse,  T. A. Wesolowski,  A. White,  J. Witte,  A. Yamada,  
 Jun Yang,  K. Yao,  S. Yeganeh,  S. R. Yost,  Zhi-Qiang You,  A. Zech,  
 Igor Ying Zhang,  Xing Zhang,  Yan Zhao,  Ying Zhu,  B. R. Brooks,  
 G. K. L. Chan,  C. J. Cramer,  M. S. Gordon,  W. J. Hehre,  A. Klamt,  
 M. W. Schmidt,  C. D. Sherrill,  D. G. Truhlar,  A. Aspuru-Guzik,  R. Baer,  
 A. T. Bell,  N. A. Besley,  Jeng-Da Chai,  A. E. DePrince, III,  
 R. A. DiStasio Jr.,  A. Dreuw,  B. D. Dunietz,  T. R. Furlani,  
 Chao-Ping Hsu,  Yousung Jung,  Jing Kong,  D. S. Lambrecht,  WanZhen Liang,  
 C. Ochsenfeld,  V. A. Rassolov,  L. V. Slipchenko,  J. E. Subotnik,  
 T. Van Voorhis,  J. M. Herbert,  A. I. Krylov,  P. M. W. Gill,  M. Head-Gordon

 Contributors to earlier versions of Q-Chem not listed above: 
 R. D. Adamson,  B. Austin,  J. Baker,  G. J. O. Beran,  K. Brandhorst,  
 S. T. Brown,  E. F. C. Byrd,  A. K. Chakraborty,  C.-L. Cheng,  
 Siu Hung Chien,  D. M. Chipman,  D. L. Crittenden,  H. Dachsel,  
 R. J. Doerksen,  A. D. Dutoi,  L. Fusti-Molnar,  W. A. Goddard III,  
 A. Golubeva-Zadorozhnaya,  S. R. Gwaltney,  G. Hawkins,  A. Heyden,  
 S. Hirata,  G. Kedziora,  F. J. Keil,  C. Kelley,  Jihan Kim,  R. A. King,  
 R. Z. Khaliullin,  P. P. Korambath,  W. Kurlancheek,  A. M. Lee,  M. S. Lee,  
 S. V. Levchenko,  Ching Yeh Lin,  D. Liotard,  R. C. Lochan,  I. Lotan,  
 P. E. Maslen,  N. Nair,  D. P. O'Neill,  D. Neuhauser,  E. Neuscamman,  
 C. M. Oana,  R. Olson,  B. Peters,  R. Peverati,  P. A. Pieniazek,  
 Y. M. Rhee,  J. Ritchie,  M. A. Rohrdanz,  E. Rosta,  N. J. Russ,  
 H. F. Schaefer III,  N. E. Schultz,  N. Shenvi,  A. C. Simmonett,  A. Sodt,  
 D. Stuck,  K. S. Thanthiriwatte,  V. Vanovschi,  Tao Wang,  A. Warshel,  
 C. F. Williams,  Q. Wu,  X. Xu,  W. Zhang

 Please cite Q-Chem as follows:
 Y. Shao et al., Mol. Phys. 113, 184-215 (2015)
 DOI: 10.1080/00268976.2014.952696

 Q-Chem 5.1.1 for Intel X86 EM64T Linux

 Parts of Q-Chem use Armadillo 8.300.2 (Tropical Shenanigans).
 http://arma.sourceforge.net/

 Q-Chem begins on Mon Mar 27 21:29:23 2023  

Host: 
0

     Scratch files written to /tmp/songzl/qchem_baker_set/qchem8060//
 Aug318 |scratch|qcdevops|jenkins|workspace|build_RNUM 6609   
Processing $rem in /apps/apps/qchem/qc51/config/preferences.
 MEM_TOTAL  1000 
The previous job contains 0 fragments, simply inherited here
Input Ideriv = 2
Curr. Ideriv = -1
Max.  Ideriv = 2

Checking the input file for inconsistencies... 	...done.

--------------------------------------------------------------
User input:
--------------------------------------------------------------
$molecule
READ ./zmat.inp
$end

$rem
mem_total               230000
mem_static              2048
job_type                optimization
basis                   6-31g**
method                  b3lyp
symmetry                false
sym_ignore              true
geom_opt_max_cycles     500
$end
--------------------------------------------------------------
 ----------------------------------------------------------------
             Standard Nuclear Orientation (Angstroms)
    I     Atom           X                Y                Z
 ----------------------------------------------------------------
    1      C       0.0000000000     0.0000000000     0.0000000000
    2      C       0.0000000000     0.0000000000     1.4200000000
    3      C       1.2167656923     0.0000000000     2.1225000000
    4      O       1.9396759464    -1.8110970574     1.6435509282
    5      C       1.9691823765    -1.7920726402     0.3340214547
    6      C       0.7643937855    -1.7644572584    -0.3979770709
    7      H       0.8555252683     0.4939377439    -0.4606539053
    8      H      -0.9878754879    -0.0000000000    -0.4606539053
    9      H      -0.9439676901     0.0000000000     1.9650000000
   10      H       1.1217659327     0.0000000000     3.2083522209
   11      H       2.0434663108     0.4939377439     1.6119203367
   12      H       0.8838179890    -1.7500399307    -1.4813191223
   13      H      -0.0803839579    -2.2539432320     0.0866403514
   14      H       2.9250949215    -1.7975912243    -0.1897158379
 ----------------------------------------------------------------
 Nuclear Repulsion Energy =   230.3354898028 hartrees
 There are       23 alpha and       23 beta electrons
 Requested basis set is 6-31G(d,p)
 There are 48 shells and 130 basis functions

 Total QAlloc Memory Limit 230000 MB
 Mega-Array Size      2002 MB
 MEM_STATIC part      2048 MB
 A cutoff of  1.0D-11 yielded   1113 shell pairs
 There are      8425 function pairs
 
 -------------------------------------------------------
 OpenMP Integral Computing Module                       
 Release: version 1.0, May 2013, Q-Chem Inc. Pittsburgh 
 -------------------------------------------------------
 Integral Job Info:
 Integral job number is                      11
 Integral operator is                         1
 short-range coefficients                     0
 long-range coefficients              100000000
 Omega coefficients                           0
 if combine SR and LR in K                    0
 Integral screening is                        0
 Integral computing path is                   2
 max size of driver memory is            800000
 size of driver memory is                593474
 size of scratch memory is              2361544
 max col of scratch BK array               1296
 max len of scratch array in speh3          155
 max len of scratch index in speh4           18
 max int batch size is                      520
 min int batch size is                       52
 fixed nKL is                                52
 max L of basis functions is                  2
 order of int derivative is                   0
 number of shells is                         48
 number of basis is                         130
 number of cartesian basis is               130
 number of contracted shell pairs          1113
 number of primitive shell pairs           3723
 maxK2 (contraction) of shell pair           36
 max number of K2 of shell pair               1
 max number of CS2 of shell pair            100
 max number of PS2 of shell pair            426
 mem total for path MDJ                  527196
 -------------------------------------------------------
 Smallest overlap matrix eigenvalue = 3.56E-03

 Scale SEOQF with 1.000000e-01/1.000000e-01/1.000000e-01

 Standard Electronic Orientation quadrupole field applied
 Nucleus-field energy     =    -0.0000000004 hartrees
 Guess from superposition of atomic densities
 Warning:  Energy on first SCF cycle will be non-variational
 SAD guess density has 46.000000 electrons

 -----------------------------------------------------------------------
  General SCF calculation program by
  Eric Jon Sundstrom, Paul Horn, Yuezhi Mao, Dmitri Zuev, Alec White,
  David Stuck, Shaama M.S., Shane Yost, Joonho Lee, David Small,
  Daniel Levine, Susi Lehtola, Hugh Burton, Evgeny Epifanovsky
 -----------------------------------------------------------------------
 Exchange:     0.2000 Hartree-Fock + 0.0800 Slater + 0.7200 B88
 Correlation:  0.1900 VWN1RPA + 0.8100 LYP
 Using SG-1 standard quadrature grid
 using 8 threads for integral computing
 -------------------------------------------------------
 OpenMP Integral computing Module                
 Release: version 1.0, May 2013, Q-Chem Inc. Pittsburgh 
 -------------------------------------------------------
 -------------------------------------------------------
 OpenMP BLAS3 based DFT computing Module                
 Release: version 1.0, May 2013, Q-Chem Inc. Pittsburgh 
 -------------------------------------------------------
 A restricted SCF calculation will be
 performed using DIIS
 SCF converges when DIIS error is below 1.0e-08
 ---------------------------------------
  Cycle       Energy         DIIS error
 ---------------------------------------
    1    -271.2487586501      5.76e-02  
    2    -270.3452658326      7.30e-03  
    3    -270.2034488783      1.17e-02  
    4    -270.4405170955      3.14e-03  
    5    -270.4586058575      6.72e-04  
    6    -270.4591959989      3.72e-04  
    7    -270.4595035232      9.51e-05  
    8    -270.4595224654      2.27e-05  
    9    -270.4595235431      6.69e-06  
   10    -270.4595236203      1.93e-06  
   11    -270.4595236268      8.78e-07  
   12    -270.4595236285      1.40e-07  
   13    -270.4595236286      3.83e-08  
   14    -270.4595236286      1.93e-08  
   15    -270.4595236286      2.19e-09  Convergence criterion met
 ---------------------------------------
 SCF time:   CPU 18.93s  wall 2.00s 
 SCF   energy in the final basis set =     -270.4595236286
 Total energy in the final basis set =     -270.4595236286
 
 --------------------------------------------------------------
 
                    Orbital Energies (a.u.)
 --------------------------------------------------------------
 
 Alpha MOs
 -- Occupied --
-19.136 -10.241 -10.213 -10.203 -10.195 -10.178  -0.990  -0.795
 -0.738  -0.664  -0.568  -0.549  -0.488  -0.459  -0.437  -0.419
 -0.393  -0.382  -0.371  -0.362  -0.285  -0.259  -0.201
 -- Virtual --
 -0.034   0.007   0.097   0.111   0.132   0.135   0.138   0.169
  0.184   0.193   0.206   0.281   0.293   0.318   0.338   0.496
  0.505   0.531   0.565   0.568   0.588   0.597   0.621   0.643
  0.661   0.712   0.738   0.751   0.787   0.810   0.828   0.836
  0.864   0.878   0.893   0.919   0.933   0.977   1.004   1.040
  1.148   1.177   1.192   1.281   1.299   1.322   1.376   1.464
  1.492   1.508   1.548   1.618   1.672   1.692   1.757   1.823
  1.837   1.873   1.910   1.915   1.951   1.988   2.020   2.061
  2.069   2.081   2.102   2.164   2.197   2.215   2.283   2.333
  2.347   2.373   2.420   2.432   2.445   2.466   2.502   2.528
  2.547   2.573   2.594   2.613   2.674   2.722   2.742   2.777
  2.791   2.873   2.974   2.990   3.019   3.263   3.283   3.364
  3.374   3.417   3.456   3.572   3.637   3.957   4.225   4.315
  4.484   4.639   4.664
 --------------------------------------------------------------
 
          Ground-State Mulliken Net Atomic Charges

     Atom                 Charge (a.u.)
  ----------------------------------------
      1 C                    -0.244146
      2 C                    -0.033578
      3 C                    -0.143106
      4 O                    -0.445379
      5 C                     0.234990
      6 C                    -0.262070
      7 H                     0.132329
      8 H                     0.119341
      9 H                     0.086282
     10 H                     0.111942
     11 H                     0.116707
     12 H                     0.101765
     13 H                     0.150413
     14 H                     0.074511
  ----------------------------------------
  Sum of atomic charges =     0.000000

 -----------------------------------------------------------------
                    Cartesian Multipole Moments
 -----------------------------------------------------------------
    Charge (ESU x 10^10)
                -0.0000
    Dipole Moment (Debye)
         X      -0.9371      Y       1.2575      Z      -1.7935
       Tot       2.3825
    Quadrupole Moments (Debye-Ang)
        XX     -36.7594     XY       3.6344     YY     -41.0926
        XZ      -4.5099     YZ       4.6152     ZZ     -37.8959
    Octopole Moments (Debye-Ang^2)
       XXX    -106.2376    XXY      37.1507    XYY     -41.6955
       YYY     101.0527    XXZ     -38.9765    XYZ      10.7135
       YYZ     -40.1418    XZZ     -41.4088    YZZ      39.6061
       ZZZ     -86.1846
    Hexadecapole Moments (Debye-Ang^3)
      XXXX    -412.6659   XXXY     151.3293   XXYY    -143.2927
      XYYY     158.0863   YYYY    -407.9376   XXXZ    -126.3993
      XXYZ      35.2565   XYYZ     -54.2851   YYYZ      51.6997
      XXZZ    -154.3051   XYZZ      65.5321   YYZZ    -155.4337
      XZZZ    -112.3953   YZZZ      54.6624   ZZZZ    -386.3153
 -----------------------------------------------------------------
 Calculating analytic gradient of the SCF energy
 Gradient of SCF Energy
            1           2           3           4           5           6
    1  -0.0196142  -0.0195553   0.0427442  -0.0094587   0.0067250   0.0143077
    2   0.0168517  -0.0234816  -0.0243349   0.0070320   0.0227140  -0.0124795
    3  -0.0096490  -0.0186791   0.0120300   0.0557840  -0.0592196  -0.0014813
            7           8           9          10          11          12
    1   0.0139811  -0.0078171  -0.0016813  -0.0122651  -0.0041977   0.0080896
    2  -0.0086132  -0.0029217   0.0136146   0.0005359   0.0076700   0.0079937
    3   0.0063180   0.0094071   0.0011598   0.0032108  -0.0121032  -0.0005743
           13          14
    1  -0.0042463  -0.0070119
    2   0.0061808  -0.0107619
    3   0.0123897   0.0014070
 Max gradient component =       5.922E-02
 RMS gradient           =       1.815E-02
 Gradient time:  CPU 5.76 s  wall 0.72 s
 Geometry Optimization Parameters
   NAtoms,    NIC,     NZ,  NCons,   NDum,   NFix, NCnnct, MaxDiis
       14      87      14       0       0       0       0       0


** GEOMETRY OPTIMIZATION IN DELOCALIZED INTERNAL COORDINATES **
   Searching for a Minimum

   Optimization Cycle:   1

                       Coordinates (Angstroms)
     ATOM                X               Y               Z
      1  C         0.0000000000    0.0000000000    0.0000000000
      2  C         0.0000000000    0.0000000000    1.4200000000
      3  C         1.2167656923    0.0000000000    2.1225000000
      4  O         1.9396759464   -1.8110970574    1.6435509282
      5  C         1.9691823765   -1.7920726402    0.3340214547
      6  C         0.7643937855   -1.7644572584   -0.3979770709
      7  H         0.8555252683    0.4939377439   -0.4606539053
      8  H        -0.9878754879    0.0000000000   -0.4606539053
      9  H        -0.9439676901    0.0000000000    1.9650000000
     10  H         1.1217659327    0.0000000000    3.2083522209
     11  H         2.0434663108    0.4939377439    1.6119203367
     12  H         0.8838179890   -1.7500399307   -1.4813191223
     13  H        -0.0803839579   -2.2539432320    0.0866403514
     14  H         2.9250949215   -1.7975912243   -0.1897158379
   Point Group: c1    Number of degrees of freedom:    36


   Energy is   -270.459523629


 Attempting to Generate Delocalized Internal Coordinates

 36 Hessian modes will be used to form the next step
  Hessian Eigenvalues:
     0.002000    0.019761    0.020555    0.021084    0.021084    0.021745
     0.033977    0.057206    0.057738    0.067125    0.068875    0.077025
     0.080105    0.095778    0.112608    0.115321    0.160000    0.160000
     0.160000    0.160000    0.220000    0.220000    0.223732    0.224273
     0.348126    0.348126    0.348126    0.348126    0.348126    0.348126
     0.348126    0.348126    0.424604    0.440026    0.448019    0.644908

 Minimum Search - Taking Simple RFO Step
 Searching for Lamda that Minimizes Along All modes
 Value Taken    Lamda =  -0.05933436
 Calculated Step too Large.  Step scaled by  0.512413
 Step Taken.  Stepsize is  0.300000

                             Maximum     Tolerance    Cnvgd?
         Gradient           0.089191      0.000300      NO
         Displacement       0.188422      0.001200      NO
         Energy change     *********      0.000001      NO


 New Cartesian Coordinates Obtained by Inverse Iteration

 Displacement from previous Coordinates is:  1.327198
 ----------------------------------------------------------------
             Standard Nuclear Orientation (Angstroms)
    I     Atom           X                Y                Z
 ----------------------------------------------------------------
    1      C       0.0332939768    -0.0191000719     0.0489960292
    2      C      -0.0122666432     0.0729935290     1.4733146722
    3      C       1.1427277896     0.2096343227     2.2380427187
    4      O       2.0691665064    -2.1442303096     1.5015189500
    5      C       2.0144039594    -1.9654498918     0.2266581934
    6      C       0.7767933052    -1.8027617413    -0.4404787332
    7      H       0.8561657995     0.5155979672    -0.4186694336
    8      H      -0.9416544968    -0.0521509866    -0.4326555580
    9      H      -0.9779194619     0.0362318417     1.9746354951
   10      H       1.0128433796     0.2498835524     3.3166659337
   11      H       1.9927447699     0.6965844429     1.7692195906
   12      H       0.8532803413    -1.7175184009    -1.5233934924
   13      H      -0.0583859398    -2.3271123204     0.0143720341
   14      H       2.9462678010    -1.9339277888    -0.3465609494
 ----------------------------------------------------------------
 Nuclear Repulsion Energy =   221.2014039702 hartrees
 There are       23 alpha and       23 beta electrons
 Applying Cartesian multipole field
    Component          Value
    ---------          -----
     (2,0,0)        1.00000E-11
     (0,2,0)        2.00000E-11
     (0,0,2)       -3.00000E-11
 Nucleus-field energy     =     0.0000000008 hartrees
 Requested basis set is 6-31G(d,p)
 There are 48 shells and 130 basis functions
 A cutoff of  1.0D-11 yielded   1090 shell pairs
 There are      8325 function pairs
 Smallest overlap matrix eigenvalue = 4.35E-03
 Guess MOs from SCF MO coefficient file

 -----------------------------------------------------------------------
  General SCF calculation program by
  Eric Jon Sundstrom, Paul Horn, Yuezhi Mao, Dmitri Zuev, Alec White,
  David Stuck, Shaama M.S., Shane Yost, Joonho Lee, David Small,
  Daniel Levine, Susi Lehtola, Hugh Burton, Evgeny Epifanovsky
 -----------------------------------------------------------------------
 Exchange:     0.2000 Hartree-Fock + 0.0800 Slater + 0.7200 B88
 Correlation:  0.1900 VWN1RPA + 0.8100 LYP
 Using SG-1 standard quadrature grid
 using 8 threads for integral computing
 -------------------------------------------------------
 OpenMP Integral computing Module                
 Release: version 1.0, May 2013, Q-Chem Inc. Pittsburgh 
 -------------------------------------------------------
 -------------------------------------------------------
 OpenMP BLAS3 based DFT computing Module                
 Release: version 1.0, May 2013, Q-Chem Inc. Pittsburgh 
 -------------------------------------------------------
 A restricted SCF calculation will be
 performed using DIIS
 SCF converges when DIIS error is below 1.0e-08
 ---------------------------------------
  Cycle       Energy         DIIS error
 ---------------------------------------
    1    -270.4353242293      2.86e-03  
    2    -270.4742696162      1.45e-03  
    3    -270.4711772658      2.06e-03  
    4    -270.4787077160      3.62e-04  
    5    -270.4789470017      1.60e-04  
    6    -270.4789995362      5.22e-05  
    7    -270.4790057809      1.57e-05  
    8    -270.4790063407      8.50e-06  
    9    -270.4790065271      1.56e-06  
   10    -270.4790065361      3.71e-07  
   11    -270.4790065366      1.45e-07  
   12    -270.4790065367      4.97e-08  
   13    -270.4790065367      8.19e-09  Convergence criterion met
 ---------------------------------------
 SCF time:   CPU 16.01s  wall 2.00s 
 SCF   energy in the final basis set =     -270.4790065367
 Total energy in the final basis set =     -270.4790065367
 
 --------------------------------------------------------------
 
                    Orbital Energies (a.u.)
 --------------------------------------------------------------
 
 Alpha MOs
 -- Occupied --
-19.127 -10.253 -10.221 -10.202 -10.194 -10.193  -0.986  -0.797
 -0.739  -0.672  -0.566  -0.552  -0.485  -0.464  -0.438  -0.417
 -0.386  -0.380  -0.376  -0.364  -0.290  -0.249  -0.222
 -- Virtual --
 -0.051  -0.002   0.092   0.106   0.126   0.135   0.137   0.168
  0.181   0.191   0.204   0.275   0.293   0.318   0.342   0.490
  0.497   0.523   0.556   0.567   0.584   0.604   0.626   0.629
  0.648   0.699   0.720   0.735   0.778   0.805   0.826   0.836
  0.855   0.884   0.896   0.909   0.924   0.956   0.973   1.035
  1.066   1.123   1.177   1.222   1.268   1.325   1.391   1.429
  1.446   1.475   1.515   1.569   1.650   1.694   1.730   1.836
  1.841   1.876   1.890   1.895   1.927   1.957   1.986   1.992
  2.033   2.052   2.102   2.120   2.151   2.180   2.250   2.285
  2.349   2.365   2.386   2.421   2.431   2.451   2.481   2.514
  2.537   2.561   2.585   2.619   2.648   2.732   2.744   2.786
  2.796   2.873   2.979   3.000   3.006   3.251   3.276   3.351
  3.370   3.403   3.461   3.562   3.643   3.875   4.159   4.296
  4.436   4.603   4.626
 --------------------------------------------------------------
 
          Ground-State Mulliken Net Atomic Charges

     Atom                 Charge (a.u.)
  ----------------------------------------
      1 C                    -0.234507
      2 C                    -0.030265
      3 C                    -0.177597
      4 O                    -0.437471
      5 C                     0.265836
      6 C                    -0.263335
      7 H                     0.130588
      8 H                     0.121128
      9 H                     0.092862
     10 H                     0.105758
     11 H                     0.103210
     12 H                     0.102768
     13 H                     0.148402
     14 H                     0.072625
  ----------------------------------------
  Sum of atomic charges =    -0.000000

 -----------------------------------------------------------------
                    Cartesian Multipole Moments
 -----------------------------------------------------------------
    Charge (ESU x 10^10)
                -0.0000
    Dipole Moment (Debye)
         X      -1.3358      Y       1.5988      Z      -2.1493
       Tot       2.9933
    Quadrupole Moments (Debye-Ang)
        XX     -37.6684     XY       4.7059     YY     -41.5106
        XZ      -5.6372     YZ       6.1277     ZZ     -38.3183
    Octopole Moments (Debye-Ang^2)
       XXX    -110.7373    XXY      41.4032    XYY     -44.6729
       YYY     106.1137    XXZ     -40.7202    XYZ      14.0304
       YYZ     -43.3296    XZZ     -43.1818    YZZ      43.1482
       ZZZ     -85.7494
    Hexadecapole Moments (Debye-Ang^3)
      XXXX    -436.0529   XXXY     177.5519   XXYY    -164.9125
      XYYY     182.6686   YYYY    -482.1744   XXXZ    -125.6680
      XXYZ      39.1777   XYYZ     -60.2832   YYYZ      48.1156
      XXZZ    -160.3138   XYZZ      75.7848   YYZZ    -174.2514
      XZZZ    -107.0714   YZZZ      45.7892   ZZZZ    -399.0784
 -----------------------------------------------------------------
 Calculating analytic gradient of the SCF energy
 Gradient of SCF Energy
            1           2           3           4           5           6
    1  -0.0243012  -0.0346325   0.0508422  -0.0009914  -0.0115122   0.0349946
    2   0.0334060  -0.0088311  -0.0210487  -0.0083262   0.0176113  -0.0368346
    3   0.0141541  -0.0353238   0.0182177   0.0658586  -0.0859945   0.0004604
            7           8           9          10          11          12
    1   0.0091548  -0.0055871  -0.0009181  -0.0083795  -0.0090620   0.0076715
    2  -0.0082401  -0.0042121   0.0129967   0.0008942   0.0144492   0.0064060
    3   0.0054376   0.0085444  -0.0002540   0.0007554  -0.0041298   0.0004824
           13          14
    1  -0.0019680  -0.0053109
    2   0.0074719  -0.0057425
    3   0.0081262   0.0036651
 Max gradient component =       8.599E-02
 RMS gradient           =       2.379E-02
 Gradient time:  CPU 5.45 s  wall 0.68 s
 Geometry Optimization Parameters
   NAtoms,    NIC,     NZ,  NCons,   NDum,   NFix, NCnnct, MaxDiis
       14      87      14       0       0       0       0       0

 Cartesian Hessian Update
 Hessian Updated using BFGS Update


** GEOMETRY OPTIMIZATION IN DELOCALIZED INTERNAL COORDINATES **
   Searching for a Minimum

   Optimization Cycle:   2

                       Coordinates (Angstroms)
     ATOM                X               Y               Z
      1  C         0.0332939768   -0.0191000719    0.0489960292
      2  C        -0.0122666432    0.0729935290    1.4733146722
      3  C         1.1427277896    0.2096343227    2.2380427187
      4  O         2.0691665064   -2.1442303096    1.5015189500
      5  C         2.0144039594   -1.9654498918    0.2266581934
      6  C         0.7767933052   -1.8027617413   -0.4404787332
      7  H         0.8561657995    0.5155979672   -0.4186694336
      8  H        -0.9416544968   -0.0521509866   -0.4326555580
      9  H        -0.9779194619    0.0362318417    1.9746354951
     10  H         1.0128433796    0.2498835524    3.3166659337
     11  H         1.9927447699    0.6965844429    1.7692195906
     12  H         0.8532803413   -1.7175184009   -1.5233934924
     13  H        -0.0583859398   -2.3271123204    0.0143720341
     14  H         2.9462678010   -1.9339277888   -0.3465609494
   Point Group: c1    Number of degrees of freedom:    36


   Energy is   -270.479006537

 Hessian Updated using BFGS Update

 28 Hessian modes will be used to form the next step
  Hessian Eigenvalues:
     0.002001    0.019843    0.020499    0.020742    0.021163    0.023756
     0.030735    0.056628    0.057556    0.064054    0.067963    0.076296
     0.080101    0.097412    0.114646    0.126709    0.154444    0.160386
     0.212414    0.220005    0.222827    0.329451    0.346438    0.352408
     0.427919    0.442485    0.540788    0.737322

 Minimum Search - Taking Simple RFO Step
 Searching for Lamda that Minimizes Along All modes
 Value Taken    Lamda =  -0.04572304
 Calculated Step too Large.  Step scaled by  0.462414
 Step Taken.  Stepsize is  0.300000

                             Maximum     Tolerance    Cnvgd?
         Gradient           0.047073      0.000300      NO
         Displacement       0.110539      0.001200      NO
         Energy change     -0.019483      0.000001      NO


 New Cartesian Coordinates Obtained by Inverse Iteration

 Displacement from previous Coordinates is:  0.532467
 ----------------------------------------------------------------
             Standard Nuclear Orientation (Angstroms)
    I     Atom           X                Y                Z
 ----------------------------------------------------------------
    1      C       0.0671921910    -0.0539643265     0.0601665475
    2      C      -0.0005850288     0.1049110780     1.4950283413
    3      C       1.0922023761     0.3040513270     2.2864488821
    4      O       2.1267575244    -2.2354591078     1.4217124311
    5      C       2.0222182588    -2.0105476762     0.1983131581
    6      C       0.7599488138    -1.8004052532    -0.4458352998
    7      H       0.8590535010     0.5110943645    -0.4207172089
    8      H      -0.8937232037    -0.1108642868    -0.4423490096
    9      H      -0.9773877165     0.0464200714     1.9700793860
   10      H       0.9578180989     0.3632571835     3.3608259600
   11      H       2.0076979472     0.6961058158     1.8606719298
   12      H       0.8047560331    -1.6942826089    -1.5277133011
   13      H      -0.0614429943    -2.3568893242    -0.0117820863
   14      H       2.9429552859    -1.9447531119    -0.4031842800
 ----------------------------------------------------------------
 Nuclear Repulsion Energy =   219.8480244841 hartrees
 There are       23 alpha and       23 beta electrons
 Applying Cartesian multipole field
    Component          Value
    ---------          -----
     (2,0,0)        1.00000E-11
     (0,2,0)        2.00000E-11
     (0,0,2)       -3.00000E-11
 Nucleus-field energy     =     0.0000000011 hartrees
 Requested basis set is 6-31G(d,p)
 There are 48 shells and 130 basis functions
 A cutoff of  1.0D-11 yielded   1088 shell pairs
 There are      8289 function pairs
 Smallest overlap matrix eigenvalue = 4.37E-03
 Guess MOs from SCF MO coefficient file

 -----------------------------------------------------------------------
  General SCF calculation program by
  Eric Jon Sundstrom, Paul Horn, Yuezhi Mao, Dmitri Zuev, Alec White,
  David Stuck, Shaama M.S., Shane Yost, Joonho Lee, David Small,
  Daniel Levine, Susi Lehtola, Hugh Burton, Evgeny Epifanovsky
 -----------------------------------------------------------------------
 Exchange:     0.2000 Hartree-Fock + 0.0800 Slater + 0.7200 B88
 Correlation:  0.1900 VWN1RPA + 0.8100 LYP
 Using SG-1 standard quadrature grid
 using 8 threads for integral computing
 -------------------------------------------------------
 OpenMP Integral computing Module                
 Release: version 1.0, May 2013, Q-Chem Inc. Pittsburgh 
 -------------------------------------------------------
 -------------------------------------------------------
 OpenMP BLAS3 based DFT computing Module                
 Release: version 1.0, May 2013, Q-Chem Inc. Pittsburgh 
 -------------------------------------------------------
 A restricted SCF calculation will be
 performed using DIIS
 SCF converges when DIIS error is below 1.0e-08
 ---------------------------------------
  Cycle       Energy         DIIS error
 ---------------------------------------
    1    -270.4876835772      1.44e-03  
    2    -270.4965757934      3.95e-04  
    3    -270.4962333723      5.82e-04  
    4    -270.4969513167      1.53e-04  
    5    -270.4969926029      5.58e-05  
    6    -270.4969981624      1.72e-05  
    7    -270.4969987180      4.87e-06  
    8    -270.4969987642      2.28e-06  
    9    -270.4969987766      4.81e-07  
   10    -270.4969987773      1.21e-07  
   11    -270.4969987774      4.35e-08  
   12    -270.4969987774      9.22e-09  Convergence criterion met
 ---------------------------------------
 SCF time:   CPU 14.47s  wall 2.00s 
 SCF   energy in the final basis set =     -270.4969987774
 Total energy in the final basis set =     -270.4969987774
 
 --------------------------------------------------------------
 
                    Orbital Energies (a.u.)
 --------------------------------------------------------------
 
 Alpha MOs
 -- Occupied --
-19.129 -10.258 -10.220 -10.203 -10.193 -10.188  -1.008  -0.797
 -0.740  -0.673  -0.567  -0.552  -0.486  -0.466  -0.439  -0.420
 -0.389  -0.386  -0.381  -0.362  -0.302  -0.251  -0.228
 -- Virtual --
 -0.045   0.005   0.096   0.109   0.130   0.136   0.139   0.170
  0.179   0.189   0.203   0.278   0.295   0.317   0.352   0.483
  0.500   0.520   0.551   0.558   0.583   0.608   0.627   0.638
  0.656   0.695   0.716   0.737   0.780   0.805   0.832   0.834
  0.857   0.881   0.896   0.909   0.927   0.945   0.964   1.062
  1.070   1.116   1.180   1.188   1.253   1.325   1.390   1.433
  1.465   1.479   1.494   1.547   1.637   1.678   1.712   1.813
  1.835   1.854   1.874   1.892   1.954   1.971   1.985   1.995
  2.056   2.064   2.110   2.114   2.144   2.190   2.243   2.271
  2.342   2.375   2.398   2.428   2.429   2.455   2.487   2.501
  2.559   2.573   2.582   2.640   2.654   2.744   2.761   2.801
  2.820   2.875   2.994   3.019   3.025   3.242   3.270   3.338
  3.378   3.403   3.480   3.557   3.673   3.884   4.140   4.277
  4.413   4.603   4.613
 --------------------------------------------------------------
 
          Ground-State Mulliken Net Atomic Charges

     Atom                 Charge (a.u.)
  ----------------------------------------
      1 C                    -0.234703
      2 C                    -0.024711
      3 C                    -0.190701
      4 O                    -0.422912
      5 C                     0.282748
      6 C                    -0.266385
      7 H                     0.127659
      8 H                     0.121209
      9 H                     0.090921
     10 H                     0.104829
     11 H                     0.099898
     12 H                     0.104293
     13 H                     0.144385
     14 H                     0.063468
  ----------------------------------------
  Sum of atomic charges =     0.000000

 -----------------------------------------------------------------
                    Cartesian Multipole Moments
 -----------------------------------------------------------------
    Charge (ESU x 10^10)
                -0.0000
    Dipole Moment (Debye)
         X      -1.3277      Y       1.4703      Z      -2.1168
       Tot       2.8992
    Quadrupole Moments (Debye-Ang)
        XX     -37.9242     XY       4.8542     YY     -41.4669
        XZ      -5.3663     YZ       6.0801     ZZ     -38.0804
    Octopole Moments (Debye-Ang^2)
       XXX    -111.9177    XXY      42.4644    XYY     -45.6375
       YYY     106.1967    XXZ     -39.8216    XYZ      14.0031
       YYZ     -43.5000    XZZ     -42.6114    YZZ      43.0642
       ZZZ     -84.6282
    Hexadecapole Moments (Debye-Ang^3)
      XXXX    -442.5376   XXXY     185.4068   XXYY    -172.1421
      XYYY     188.4988   YYYY    -501.2811   XXXZ    -120.7631
      XXYZ      37.0449   XYYZ     -60.2625   YYYZ      41.8557
      XXZZ    -159.5481   XYZZ      76.7688   YYZZ    -177.8173
      XZZZ    -101.6640   YZZZ      38.1704   ZZZZ    -401.6713
 -----------------------------------------------------------------
 Calculating analytic gradient of the SCF energy
 Gradient of SCF Energy
            1           2           3           4           5           6
    1  -0.0266900  -0.0183484   0.0289910   0.0019321  -0.0162995   0.0349680
    2   0.0407671  -0.0029419  -0.0163227  -0.0036734   0.0103536  -0.0458788
    3   0.0179479  -0.0243459   0.0117934   0.0302898  -0.0494723  -0.0061764
            7           8           9          10          11          12
    1   0.0064918  -0.0021919   0.0001021  -0.0039071  -0.0072989   0.0047737
    2  -0.0088374  -0.0067763   0.0104472  -0.0001335   0.0116074   0.0065034
    3   0.0047870   0.0057081  -0.0004808  -0.0008700  -0.0011120   0.0010227
           13          14
    1  -0.0001640  -0.0023588
    2   0.0088980  -0.0040127
    3   0.0056441   0.0052643
 Max gradient component =       4.947E-02
 RMS gradient           =       1.744E-02
 Gradient time:  CPU 5.28 s  wall 0.66 s
 Geometry Optimization Parameters
   NAtoms,    NIC,     NZ,  NCons,   NDum,   NFix, NCnnct, MaxDiis
       14      87      14       0       0       0       0       0

 Cartesian Hessian Update
 Hessian Updated using BFGS Update


** GEOMETRY OPTIMIZATION IN DELOCALIZED INTERNAL COORDINATES **
   Searching for a Minimum

   Optimization Cycle:   3

                       Coordinates (Angstroms)
     ATOM                X               Y               Z
      1  C         0.0671921910   -0.0539643265    0.0601665475
      2  C        -0.0005850288    0.1049110780    1.4950283413
      3  C         1.0922023761    0.3040513270    2.2864488821
      4  O         2.1267575244   -2.2354591078    1.4217124311
      5  C         2.0222182588   -2.0105476762    0.1983131581
      6  C         0.7599488138   -1.8004052532   -0.4458352998
      7  H         0.8590535010    0.5110943645   -0.4207172089
      8  H        -0.8937232037   -0.1108642868   -0.4423490096
      9  H        -0.9773877165    0.0464200714    1.9700793860
     10  H         0.9578180989    0.3632571835    3.3608259600
     11  H         2.0076979472    0.6961058158    1.8606719298
     12  H         0.8047560331   -1.6942826089   -1.5277133011
     13  H        -0.0614429943   -2.3568893242   -0.0117820863
     14  H         2.9429552859   -1.9447531119   -0.4031842800
   Point Group: c1    Number of degrees of freedom:    36


   Energy is   -270.496998777

 Hessian Updated using BFGS Update

 30 Hessian modes will be used to form the next step
  Hessian Eigenvalues:
     0.002002    0.019452    0.020479    0.020698    0.021705    0.024117
     0.036282    0.044640    0.057416    0.059054    0.067853    0.077635
     0.080701    0.093678    0.114553    0.126737    0.157791    0.160045
     0.168217    0.219153    0.220473    0.228530    0.341759    0.347668
     0.348263    0.385477    0.428384    0.456387    0.622428    0.667822

 Minimum Search - Taking Simple RFO Step
 Searching for Lamda that Minimizes Along All modes
 Value Taken    Lamda =  -0.03565970
 Calculated Step too Large.  Step scaled by  0.437902
 Step Taken.  Stepsize is  0.300000

                             Maximum     Tolerance    Cnvgd?
         Gradient           0.034619      0.000300      NO
         Displacement       0.132353      0.001200      NO
         Energy change     -0.017992      0.000001      NO


 New Cartesian Coordinates Obtained by Inverse Iteration

 Displacement from previous Coordinates is:  0.431808
 ----------------------------------------------------------------
             Standard Nuclear Orientation (Angstroms)
    I     Atom           X                Y                Z
 ----------------------------------------------------------------
    1      C       0.1071736241    -0.0991501304     0.0639456409
    2      C       0.0184212240     0.1062765107     1.5077328113
    3      C       1.0621751310     0.3714045181     2.3119034502
    4      O       2.1582760949    -2.3325290901     1.3674554915
    5      C       2.0219104848    -2.0365088848     0.1896724089
    6      C       0.7376809315    -1.7739462792    -0.4366176916
    7      H       0.8670960289     0.5066847205    -0.4209185044
    8      H      -0.8470023662    -0.1558453445    -0.4503896202
    9      H      -0.9670510485     0.0227440497     1.9614729214
   10      H       0.9162473917     0.4620228118     3.3818643975
   11      H       2.0097237520     0.7183575783     1.9186296498
   12      H       0.7663115095    -1.6556468856    -1.5175569912
   13      H      -0.0707262768    -2.3710044525    -0.0311525516
   14      H       2.9272246062    -1.9441849772    -0.4443759623
 ----------------------------------------------------------------
 Nuclear Repulsion Energy =   219.5615072109 hartrees
 There are       23 alpha and       23 beta electrons
 Applying Cartesian multipole field
    Component          Value
    ---------          -----
     (2,0,0)        1.00000E-11
     (0,2,0)        2.00000E-11
     (0,0,2)       -3.00000E-11
 Nucleus-field energy     =     0.0000000014 hartrees
 Requested basis set is 6-31G(d,p)
 There are 48 shells and 130 basis functions
 A cutoff of  1.0D-11 yielded   1077 shell pairs
 There are      8215 function pairs
 Smallest overlap matrix eigenvalue = 4.30E-03
 Guess MOs from SCF MO coefficient file

 -----------------------------------------------------------------------
  General SCF calculation program by
  Eric Jon Sundstrom, Paul Horn, Yuezhi Mao, Dmitri Zuev, Alec White,
  David Stuck, Shaama M.S., Shane Yost, Joonho Lee, David Small,
  Daniel Levine, Susi Lehtola, Hugh Burton, Evgeny Epifanovsky
 -----------------------------------------------------------------------
 Exchange:     0.2000 Hartree-Fock + 0.0800 Slater + 0.7200 B88
 Correlation:  0.1900 VWN1RPA + 0.8100 LYP
 Using SG-1 standard quadrature grid
 using 8 threads for integral computing
 -------------------------------------------------------
 OpenMP Integral computing Module                
 Release: version 1.0, May 2013, Q-Chem Inc. Pittsburgh 
 -------------------------------------------------------
 -------------------------------------------------------
 OpenMP BLAS3 based DFT computing Module                
 Release: version 1.0, May 2013, Q-Chem Inc. Pittsburgh 
 -------------------------------------------------------
 A restricted SCF calculation will be
 performed using DIIS
 SCF converges when DIIS error is below 1.0e-08
 ---------------------------------------
  Cycle       Energy         DIIS error
 ---------------------------------------
    1    -270.5022059372      1.39e-03  
    2    -270.5106764959      3.21e-04  
    3    -270.5105370903      4.51e-04  
    4    -270.5109260995      1.27e-04  
    5    -270.5109533944      4.37e-05  
    6    -270.5109569579      1.09e-05  
    7    -270.5109571664      4.78e-06  
    8    -270.5109572112      1.51e-06  
    9    -270.5109572162      3.82e-07  
   10    -270.5109572166      7.05e-08  
   11    -270.5109572166      3.54e-08  
   12    -270.5109572166      6.84e-09  Convergence criterion met
 ---------------------------------------
 SCF time:   CPU 14.36s  wall 1.00s 
 SCF   energy in the final basis set =     -270.5109572166
 Total energy in the final basis set =     -270.5109572166
 
 --------------------------------------------------------------
 
                    Orbital Energies (a.u.)
 --------------------------------------------------------------
 
 Alpha MOs
 -- Occupied --
-19.134 -10.263 -10.217 -10.204 -10.192 -10.184  -1.026  -0.798
 -0.742  -0.671  -0.569  -0.552  -0.487  -0.467  -0.440  -0.422
 -0.395  -0.392  -0.381  -0.357  -0.314  -0.255  -0.234
 -- Virtual --
 -0.037   0.009   0.098   0.111   0.136   0.139   0.142   0.171
  0.176   0.186   0.202   0.276   0.295   0.313   0.359   0.478
  0.503   0.521   0.543   0.556   0.583   0.612   0.630   0.642
  0.668   0.694   0.718   0.740   0.784   0.801   0.832   0.834
  0.857   0.875   0.894   0.910   0.928   0.944   0.956   1.061
  1.081   1.118   1.154   1.188   1.255   1.331   1.388   1.438
  1.468   1.482   1.502   1.550   1.629   1.670   1.700   1.799
  1.829   1.842   1.860   1.890   1.962   1.976   1.996   2.001
  2.067   2.080   2.092   2.118   2.159   2.200   2.245   2.263
  2.325   2.375   2.405   2.424   2.439   2.461   2.493   2.495
  2.578   2.585   2.591   2.651   2.659   2.750   2.772   2.813
  2.837   2.877   3.002   3.026   3.045   3.232   3.267   3.325
  3.379   3.408   3.489   3.544   3.690   3.903   4.128   4.266
  4.401   4.603   4.617
 --------------------------------------------------------------
 
          Ground-State Mulliken Net Atomic Charges

     Atom                 Charge (a.u.)
  ----------------------------------------
      1 C                    -0.236185
      2 C                    -0.019742
      3 C                    -0.203579
      4 O                    -0.406728
      5 C                     0.293470
      6 C                    -0.264154
      7 H                     0.123268
      8 H                     0.120105
      9 H                     0.089266
     10 H                     0.103568
     11 H                     0.097109
     12 H                     0.106025
     13 H                     0.140276
     14 H                     0.057299
  ----------------------------------------
  Sum of atomic charges =    -0.000000

 -----------------------------------------------------------------
                    Cartesian Multipole Moments
 -----------------------------------------------------------------
    Charge (ESU x 10^10)
                -0.0000
    Dipole Moment (Debye)
         X      -1.2729      Y       1.3577      Z      -2.1003
       Tot       2.8062
    Quadrupole Moments (Debye-Ang)
        XX     -38.0808     XY       4.9485     YY     -41.5585
        XZ      -5.1173     YZ       6.0328     ZZ     -38.0260
    Octopole Moments (Debye-Ang^2)
       XXX    -112.7443    XXY      43.3536    XYY     -46.6553
       YYY     107.5562    XXZ     -39.0965    XYZ      13.9209
       YYZ     -43.8244    XZZ     -42.2782    YZZ      43.2121
       ZZZ     -84.4506
    Hexadecapole Moments (Debye-Ang^3)
      XXXX    -444.9543   XXXY     190.5139   XXYY    -177.9189
      XYYY     193.8642   YYYY    -518.7404   XXXZ    -117.4385
      XXYZ      35.8060   XYYZ     -60.6839   YYYZ      40.6681
      XXZZ    -158.3571   XYZZ      77.2431   YYZZ    -180.3076
      XZZZ     -98.9118   YZZZ      34.9432   ZZZZ    -403.8261
 -----------------------------------------------------------------
 Calculating analytic gradient of the SCF energy
 Gradient of SCF Energy
            1           2           3           4           5           6
    1  -0.0266675  -0.0040108   0.0121826   0.0018278  -0.0147693   0.0316332
    2   0.0442005   0.0011211  -0.0145705   0.0003993   0.0061310  -0.0496522
    3   0.0197846  -0.0134539   0.0038141   0.0024115  -0.0142525  -0.0137827
            7           8           9          10          11          12
    1   0.0050273   0.0005089   0.0001196  -0.0012278  -0.0060361   0.0020302
    2  -0.0083348  -0.0093961   0.0085714  -0.0003873   0.0094715   0.0073807
    3   0.0037043   0.0032622  -0.0005699  -0.0013387   0.0004960   0.0016720
           13          14
    1  -0.0000743  -0.0005437
    2   0.0087549  -0.0036895
    3   0.0044453   0.0038076
 Max gradient component =       4.965E-02
 RMS gradient           =       1.410E-02
 Gradient time:  CPU 5.27 s  wall 0.66 s
 Geometry Optimization Parameters
   NAtoms,    NIC,     NZ,  NCons,   NDum,   NFix, NCnnct, MaxDiis
       14      87      14       0       0       0       0       0

 Cartesian Hessian Update
 Hessian Updated using BFGS Update


** GEOMETRY OPTIMIZATION IN DELOCALIZED INTERNAL COORDINATES **
   Searching for a Minimum

   Optimization Cycle:   4

                       Coordinates (Angstroms)
     ATOM                X               Y               Z
      1  C         0.1071736241   -0.0991501304    0.0639456409
      2  C         0.0184212240    0.1062765107    1.5077328113
      3  C         1.0621751310    0.3714045181    2.3119034502
      4  O         2.1582760949   -2.3325290901    1.3674554915
      5  C         2.0219104848   -2.0365088848    0.1896724089
      6  C         0.7376809315   -1.7739462792   -0.4366176916
      7  H         0.8670960289    0.5066847205   -0.4209185044
      8  H        -0.8470023662   -0.1558453445   -0.4503896202
      9  H        -0.9670510485    0.0227440497    1.9614729214
     10  H         0.9162473917    0.4620228118    3.3818643975
     11  H         2.0097237520    0.7183575783    1.9186296498
     12  H         0.7663115095   -1.6556468856   -1.5175569912
     13  H        -0.0707262768   -2.3710044525   -0.0311525516
     14  H         2.9272246062   -1.9441849772   -0.4443759623
   Point Group: c1    Number of degrees of freedom:    36


   Energy is   -270.510957217

 Hessian Updated using BFGS Update

 32 Hessian modes will be used to form the next step
  Hessian Eigenvalues:
     0.002002    0.017796    0.020519    0.020805    0.021962    0.023942
     0.028918    0.041135    0.057402    0.059181    0.067857    0.077958
     0.080873    0.096464    0.114576    0.127096    0.159306    0.160014
     0.160091    0.168799    0.220378    0.221175    0.232228    0.345063
     0.347689    0.348196    0.348369    0.404978    0.430986    0.473566
     0.572837    0.886088

 Minimum Search - Taking Simple RFO Step
 Searching for Lamda that Minimizes Along All modes
 Value Taken    Lamda =  -0.03225113
 Calculated Step too Large.  Step scaled by  0.401541
 Step Taken.  Stepsize is  0.300000

                             Maximum     Tolerance    Cnvgd?
         Gradient           0.021499      0.000300      NO
         Displacement       0.125431      0.001200      NO
         Energy change     -0.013958      0.000001      NO


 New Cartesian Coordinates Obtained by Inverse Iteration

 Displacement from previous Coordinates is:  0.314289
 ----------------------------------------------------------------
             Standard Nuclear Orientation (Angstroms)
    I     Atom           X                Y                Z
 ----------------------------------------------------------------
    1      C       0.1446821938    -0.1460289742     0.0593625098
    2      C       0.0356594547     0.0985412768     1.5107699380
    3      C       1.0431310451     0.4155146350     2.3252227151
    4      O       2.1767618217    -2.3905162469     1.3348962841
    5      C       2.0179939320    -2.0497385118     0.1860523876
    6      C       0.7134149635    -1.7393683786    -0.4188876048
    7      H       0.8745962916     0.4988880862    -0.4254119811
    8      H      -0.8097486950    -0.1818233044    -0.4581056916
    9      H      -0.9563456518    -0.0065611873     1.9465808879
   10      H       0.8870648440     0.5278508959     3.3916691176
   11      H       2.0161835369     0.7243341566     1.9612077404
   12      H       0.7344032654    -1.6289723043    -1.5013221568
   13      H      -0.0797250216    -2.3747340067    -0.0376688178
   14      H       2.9093891069    -1.9287119915    -0.4726998782
 ----------------------------------------------------------------
 Nuclear Repulsion Energy =   219.9360336385 hartrees
 There are       23 alpha and       23 beta electrons
 Applying Cartesian multipole field
    Component          Value
    ---------          -----
     (2,0,0)        1.00000E-11
     (0,2,0)        2.00000E-11
     (0,0,2)       -3.00000E-11
 Nucleus-field energy     =     0.0000000016 hartrees
 Requested basis set is 6-31G(d,p)
 There are 48 shells and 130 basis functions
 A cutoff of  1.0D-11 yielded   1078 shell pairs
 There are      8204 function pairs
 Smallest overlap matrix eigenvalue = 4.29E-03
 Guess MOs from SCF MO coefficient file

 -----------------------------------------------------------------------
  General SCF calculation program by
  Eric Jon Sundstrom, Paul Horn, Yuezhi Mao, Dmitri Zuev, Alec White,
  David Stuck, Shaama M.S., Shane Yost, Joonho Lee, David Small,
  Daniel Levine, Susi Lehtola, Hugh Burton, Evgeny Epifanovsky
 -----------------------------------------------------------------------
 Exchange:     0.2000 Hartree-Fock + 0.0800 Slater + 0.7200 B88
 Correlation:  0.1900 VWN1RPA + 0.8100 LYP
 Using SG-1 standard quadrature grid
 using 8 threads for integral computing
 -------------------------------------------------------
 OpenMP Integral computing Module                
 Release: version 1.0, May 2013, Q-Chem Inc. Pittsburgh 
 -------------------------------------------------------
 -------------------------------------------------------
 OpenMP BLAS3 based DFT computing Module                
 Release: version 1.0, May 2013, Q-Chem Inc. Pittsburgh 
 -------------------------------------------------------
 A restricted SCF calculation will be
 performed using DIIS
 SCF converges when DIIS error is below 1.0e-08
 ---------------------------------------
  Cycle       Energy         DIIS error
 ---------------------------------------
    1    -270.5170411321      1.12e-03  
    2    -270.5224923286      2.44e-04  
    3    -270.5224836944      2.91e-04  
    4    -270.5226354806      9.18e-05  
    5    -270.5226490680      3.16e-05  
    6    -270.5226509073      5.44e-06  
    7    -270.5226509481      3.60e-06  
    8    -270.5226509744      7.82e-07  
    9    -270.5226509756      2.85e-07  
   10    -270.5226509758      6.29e-08  
   11    -270.5226509758      2.27e-08  
   12    -270.5226509758      4.11e-09  Convergence criterion met
 ---------------------------------------
 SCF time:   CPU 14.29s  wall 2.00s 
 SCF   energy in the final basis set =     -270.5226509758
 Total energy in the final basis set =     -270.5226509758
 
 --------------------------------------------------------------
 
                    Orbital Energies (a.u.)
 --------------------------------------------------------------
 
 Alpha MOs
 -- Occupied --
-19.139 -10.267 -10.213 -10.203 -10.191 -10.181  -1.037  -0.800
 -0.745  -0.669  -0.570  -0.551  -0.488  -0.467  -0.441  -0.424
 -0.402  -0.393  -0.379  -0.352  -0.325  -0.258  -0.238
 -- Virtual --
 -0.029   0.012   0.100   0.112   0.137   0.140   0.158   0.173
  0.174   0.186   0.201   0.274   0.293   0.310   0.363   0.477
  0.507   0.526   0.540   0.555   0.585   0.613   0.632   0.644
  0.675   0.692   0.721   0.743   0.786   0.797   0.830   0.835
  0.855   0.872   0.893   0.909   0.928   0.944   0.950   1.056
  1.077   1.122   1.141   1.195   1.261   1.346   1.387   1.433
  1.469   1.479   1.521   1.558   1.626   1.665   1.712   1.792
  1.824   1.830   1.850   1.890   1.960   1.982   2.002   2.007
  2.065   2.074   2.108   2.122   2.165   2.207   2.249   2.259
  2.303   2.380   2.404   2.422   2.445   2.464   2.492   2.505
  2.591   2.600   2.608   2.658   2.662   2.750   2.779   2.830
  2.851   2.875   3.004   3.024   3.060   3.223   3.266   3.316
  3.379   3.415   3.493   3.531   3.699   3.917   4.123   4.260
  4.400   4.598   4.636
 --------------------------------------------------------------
 
          Ground-State Mulliken Net Atomic Charges

     Atom                 Charge (a.u.)
  ----------------------------------------
      1 C                    -0.235754
      2 C                    -0.018944
      3 C                    -0.210961
      4 O                    -0.394268
      5 C                     0.296534
      6 C                    -0.256531
      7 H                     0.118876
      8 H                     0.117994
      9 H                     0.087817
     10 H                     0.102758
     11 H                     0.095364
     12 H                     0.106419
     13 H                     0.136230
     14 H                     0.054465
  ----------------------------------------
  Sum of atomic charges =     0.000000

 -----------------------------------------------------------------
                    Cartesian Multipole Moments
 -----------------------------------------------------------------
    Charge (ESU x 10^10)
                -0.0000
    Dipole Moment (Debye)
         X      -1.2024      Y       1.2344      Z      -2.0842
       Tot       2.7043
    Quadrupole Moments (Debye-Ang)
        XX     -38.1488     XY       4.9199     YY     -41.5618
        XZ      -4.9053     YZ       5.9303     ZZ     -38.0157
    Octopole Moments (Debye-Ang^2)
       XXX    -113.1642    XXY      43.7876    XYY     -47.2275
       YYY     108.2809    XXZ     -38.5518    XYZ      13.7553
       YYZ     -43.9600    XZZ     -41.9703    YZZ      43.2015
       ZZZ     -84.4109
    Hexadecapole Moments (Debye-Ang^3)
      XXXX    -445.2139   XXXY     192.6629   XXYY    -180.9647
      XYYY     196.1993   YYYY    -527.0577   XXXZ    -115.4672
      XXYZ      34.9368   XYYZ     -60.8673   YYYZ      40.4902
      XXZZ    -157.0573   XYZZ      77.0449   YYZZ    -180.9707
      XZZZ     -97.3362   YZZZ      33.4349   ZZZZ    -404.6187
 -----------------------------------------------------------------
 Calculating analytic gradient of the SCF energy
 Gradient of SCF Energy
            1           2           3           4           5           6
    1  -0.0232018   0.0039377   0.0017270   0.0009271  -0.0120224   0.0253503
    2   0.0405661   0.0039316  -0.0125450   0.0047761  -0.0002171  -0.0455613
    3   0.0179974  -0.0061324  -0.0007544  -0.0117434   0.0063948  -0.0170925
            7           8           9          10          11          12
    1   0.0036083   0.0023005  -0.0000311   0.0008610  -0.0043860   0.0001880
    2  -0.0070830  -0.0112358   0.0068479  -0.0005822   0.0074515   0.0083208
    3   0.0026426   0.0014444  -0.0007196  -0.0012839   0.0016811   0.0022652
           13          14
    1  -0.0000310   0.0007723
    2   0.0078249  -0.0024945
    3   0.0034097   0.0018911
 Max gradient component =       4.556E-02
 RMS gradient           =       1.252E-02
 Gradient time:  CPU 5.25 s  wall 0.66 s
 Geometry Optimization Parameters
   NAtoms,    NIC,     NZ,  NCons,   NDum,   NFix, NCnnct, MaxDiis
       14      87      14       0       0       0       0       0

 Cartesian Hessian Update
 Hessian Updated using BFGS Update


** GEOMETRY OPTIMIZATION IN DELOCALIZED INTERNAL COORDINATES **
   Searching for a Minimum

   Optimization Cycle:   5

                       Coordinates (Angstroms)
     ATOM                X               Y               Z
      1  C         0.1446821938   -0.1460289742    0.0593625098
      2  C         0.0356594547    0.0985412768    1.5107699380
      3  C         1.0431310451    0.4155146350    2.3252227151
      4  O         2.1767618217   -2.3905162469    1.3348962841
      5  C         2.0179939320   -2.0497385118    0.1860523876
      6  C         0.7134149635   -1.7393683786   -0.4188876048
      7  H         0.8745962916    0.4988880862   -0.4254119811
      8  H        -0.8097486950   -0.1818233044   -0.4581056916
      9  H        -0.9563456518   -0.0065611873    1.9465808879
     10  H         0.8870648440    0.5278508959    3.3916691176
     11  H         2.0161835369    0.7243341566    1.9612077404
     12  H         0.7344032654   -1.6289723043   -1.5013221568
     13  H        -0.0797250216   -2.3747340067   -0.0376688178
     14  H         2.9093891069   -1.9287119915   -0.4726998782
   Point Group: c1    Number of degrees of freedom:    36


   Energy is   -270.522650976

 Hessian Updated using BFGS Update

 33 Hessian modes will be used to form the next step
  Hessian Eigenvalues:
     0.002000    0.018996    0.020666    0.020700    0.021874    0.023817
     0.028960    0.040708    0.057425    0.059925    0.067926    0.078092
     0.080893    0.104730    0.114631    0.127604    0.159951    0.160025
     0.160937    0.169154    0.220396    0.221537    0.234588    0.345457
     0.347639    0.348134    0.348200    0.349079    0.407337    0.431468
     0.476779    0.519217    0.985263

 Minimum Search - Taking Simple RFO Step
 Searching for Lamda that Minimizes Along All modes
 Value Taken    Lamda =  -0.02573659
 Calculated Step too Large.  Step scaled by  0.427416
 Step Taken.  Stepsize is  0.300000

                             Maximum     Tolerance    Cnvgd?
         Gradient           0.020051      0.000300      NO
         Displacement       0.134482      0.001200      NO
         Energy change     -0.011694      0.000001      NO


 New Cartesian Coordinates Obtained by Inverse Iteration

 Displacement from previous Coordinates is:  0.233571
 ----------------------------------------------------------------
             Standard Nuclear Orientation (Angstroms)
    I     Atom           X                Y                Z
 ----------------------------------------------------------------
    1      C       0.1751896275    -0.1870878059     0.0501691665
    2      C       0.0479465171     0.0857856317     1.5088117327
    3      C       1.0304494951     0.4429387963     2.3277633178
    4      O       2.1876663516    -2.4307127799     1.3162364006
    5      C       2.0150313946    -2.0492293521     0.1880040447
    6      C       0.6914855424    -1.6997704049    -0.3966104019
    7      H       0.8765437895     0.4956399964    -0.4309206126
    8      H      -0.7855044888    -0.1808492015    -0.4616641012
    9      H      -0.9475491520    -0.0398313792     1.9324140165
   10      H       0.8673726432     0.5720502260     3.3916809805
   11      H       2.0231223013     0.7149086649     1.9846100393
   12      H       0.7138200866    -1.6203447166    -1.4832522682
   13      H      -0.0828344343    -2.3737631728    -0.0362284612
   14      H       2.8947214134    -1.9110603576    -0.4893484032
 ----------------------------------------------------------------
 Nuclear Repulsion Energy =   220.6197769690 hartrees
 There are       23 alpha and       23 beta electrons
 Applying Cartesian multipole field
    Component          Value
    ---------          -----
     (2,0,0)        1.00000E-11
     (0,2,0)        2.00000E-11
     (0,0,2)       -3.00000E-11
 Nucleus-field energy     =     0.0000000017 hartrees
 Requested basis set is 6-31G(d,p)
 There are 48 shells and 130 basis functions
 A cutoff of  1.0D-11 yielded   1079 shell pairs
 There are      8204 function pairs
 Smallest overlap matrix eigenvalue = 4.32E-03
 Guess MOs from SCF MO coefficient file

 -----------------------------------------------------------------------
  General SCF calculation program by
  Eric Jon Sundstrom, Paul Horn, Yuezhi Mao, Dmitri Zuev, Alec White,
  David Stuck, Shaama M.S., Shane Yost, Joonho Lee, David Small,
  Daniel Levine, Susi Lehtola, Hugh Burton, Evgeny Epifanovsky
 -----------------------------------------------------------------------
 Exchange:     0.2000 Hartree-Fock + 0.0800 Slater + 0.7200 B88
 Correlation:  0.1900 VWN1RPA + 0.8100 LYP
 Using SG-1 standard quadrature grid
 using 8 threads for integral computing
 -------------------------------------------------------
 OpenMP Integral computing Module                
 Release: version 1.0, May 2013, Q-Chem Inc. Pittsburgh 
 -------------------------------------------------------
 -------------------------------------------------------
 OpenMP BLAS3 based DFT computing Module                
 Release: version 1.0, May 2013, Q-Chem Inc. Pittsburgh 
 -------------------------------------------------------
 A restricted SCF calculation will be
 performed using DIIS
 SCF converges when DIIS error is below 1.0e-08
 ---------------------------------------
  Cycle       Energy         DIIS error
 ---------------------------------------
    1    -270.5274938411      1.00e-03  
    2    -270.5318602507      2.31e-04  
    3    -270.5318789881      2.37e-04  
    4    -270.5319919045      4.52e-05  
    5    -270.5319939847      3.07e-05  
    6    -270.5319956307      3.91e-06  
    7    -270.5319956594      1.87e-06  
    8    -270.5319956661      6.00e-07  
    9    -270.5319956669      2.33e-07  
   10    -270.5319956670      4.51e-08  
   11    -270.5319956670      1.86e-08  
   12    -270.5319956670      4.54e-09  Convergence criterion met
 ---------------------------------------
 SCF time:   CPU 14.29s  wall 1.00s 
 SCF   energy in the final basis set =     -270.5319956670
 Total energy in the final basis set =     -270.5319956670
 
 --------------------------------------------------------------
 
                    Orbital Energies (a.u.)
 --------------------------------------------------------------
 
 Alpha MOs
 -- Occupied --
-19.143 -10.271 -10.208 -10.202 -10.190 -10.180  -1.044  -0.804
 -0.747  -0.667  -0.572  -0.551  -0.490  -0.466  -0.440  -0.426
 -0.410  -0.391  -0.375  -0.350  -0.334  -0.261  -0.241
 -- Virtual --
 -0.025   0.014   0.101   0.112   0.137   0.141   0.163   0.173
  0.178   0.194   0.206   0.271   0.287   0.309   0.365   0.477
  0.510   0.528   0.543   0.556   0.589   0.612   0.634   0.647
  0.677   0.690   0.724   0.746   0.784   0.799   0.829   0.835
  0.853   0.872   0.890   0.907   0.929   0.939   0.950   1.046
  1.072   1.117   1.140   1.203   1.270   1.357   1.383   1.426
  1.469   1.480   1.533   1.564   1.633   1.661   1.749   1.787
  1.816   1.822   1.847   1.890   1.958   1.985   2.003   2.013
  2.059   2.077   2.120   2.129   2.165   2.215   2.241   2.260
  2.287   2.382   2.403   2.423   2.443   2.468   2.493   2.522
  2.598   2.614   2.630   2.663   2.671   2.746   2.781   2.846
  2.864   2.871   2.999   3.020   3.069   3.219   3.265   3.310
  3.381   3.418   3.487   3.525   3.701   3.921   4.127   4.259
  4.403   4.594   4.658
 --------------------------------------------------------------
 
          Ground-State Mulliken Net Atomic Charges

     Atom                 Charge (a.u.)
  ----------------------------------------
      1 C                    -0.234150
      2 C                    -0.020845
      3 C                    -0.214886
      4 O                    -0.385648
      5 C                     0.295554
      6 C                    -0.245845
      7 H                     0.115014
      8 H                     0.115275
      9 H                     0.086865
     10 H                     0.102031
     11 H                     0.094066
     12 H                     0.105492
     13 H                     0.132525
     14 H                     0.054552
  ----------------------------------------
  Sum of atomic charges =     0.000000

 -----------------------------------------------------------------
                    Cartesian Multipole Moments
 -----------------------------------------------------------------
    Charge (ESU x 10^10)
                -0.0000
    Dipole Moment (Debye)
         X      -1.1315      Y       1.1398      Z      -2.0745
       Tot       2.6235
    Quadrupole Moments (Debye-Ang)
        XX     -38.1405     XY       4.8393     YY     -41.5786
        XZ      -4.7605     YZ       5.8428     ZZ     -38.0435
    Octopole Moments (Debye-Ang^2)
       XXX    -113.2450    XXY      43.9577    XYY     -47.6526
       YYY     108.7925    XXZ     -38.1986    XYZ      13.6388
       YYZ     -44.1640    XZZ     -41.7532    YZZ      43.1108
       ZZZ     -84.5050
    Hexadecapole Moments (Debye-Ang^3)
      XXXX    -444.4927   XXXY     193.3674   XXYY    -182.7300
      XYYY     197.5876   YYYY    -530.6383   XXXZ    -114.4218
      XXYZ      34.6425   XYYZ     -61.2295   YYYZ      41.7803
      XXZZ    -155.8310   XYZZ      76.6529   YYZZ    -180.6407
      XZZZ     -96.6259   YZZZ      33.4612   ZZZZ    -404.0869
 -----------------------------------------------------------------
 Calculating analytic gradient of the SCF energy
 Gradient of SCF Energy
            1           2           3           4           5           6
    1  -0.0152435   0.0076052  -0.0045885   0.0002387  -0.0086962   0.0162551
    2   0.0276627   0.0056827  -0.0102784   0.0064974  -0.0034408  -0.0322789
    3   0.0131888  -0.0012370  -0.0038269  -0.0157726   0.0152833  -0.0146810
            7           8           9          10          11          12
    1   0.0019067   0.0027298  -0.0002262   0.0021134  -0.0027401  -0.0008180
    2  -0.0050490  -0.0111400   0.0051560  -0.0006699   0.0053904   0.0082386
    3   0.0014204   0.0003448  -0.0006847  -0.0009755   0.0024465   0.0023189
           13          14
    1  -0.0000651   0.0015287
    2   0.0059921  -0.0017628
    3   0.0020566   0.0001183
 Max gradient component =       3.228E-02
 RMS gradient           =       9.632E-03
 Gradient time:  CPU 5.23 s  wall 0.66 s
 Geometry Optimization Parameters
   NAtoms,    NIC,     NZ,  NCons,   NDum,   NFix, NCnnct, MaxDiis
       14      87      14       0       0       0       0       0

 Cartesian Hessian Update
 Hessian Updated using BFGS Update


** GEOMETRY OPTIMIZATION IN DELOCALIZED INTERNAL COORDINATES **
   Searching for a Minimum

   Optimization Cycle:   6

                       Coordinates (Angstroms)
     ATOM                X               Y               Z
      1  C         0.1751896275   -0.1870878059    0.0501691665
      2  C         0.0479465171    0.0857856317    1.5088117327
      3  C         1.0304494951    0.4429387963    2.3277633178
      4  O         2.1876663516   -2.4307127799    1.3162364006
      5  C         2.0150313946   -2.0492293521    0.1880040447
      6  C         0.6914855424   -1.6997704049   -0.3966104019
      7  H         0.8765437895    0.4956399964   -0.4309206126
      8  H        -0.7855044888   -0.1808492015   -0.4616641012
      9  H        -0.9475491520   -0.0398313792    1.9324140165
     10  H         0.8673726432    0.5720502260    3.3916809805
     11  H         2.0231223013    0.7149086649    1.9846100393
     12  H         0.7138200866   -1.6203447166   -1.4832522682
     13  H        -0.0828344343   -2.3737631728   -0.0362284612
     14  H         2.8947214134   -1.9110603576   -0.4893484032
   Point Group: c1    Number of degrees of freedom:    36


   Energy is   -270.531995667

 Hessian Updated using BFGS Update

 34 Hessian modes will be used to form the next step
  Hessian Eigenvalues:
     0.002002    0.020217    0.020676    0.021247    0.021911    0.024212
     0.034993    0.042504    0.057453    0.061187    0.068073    0.078114
     0.080884    0.114250    0.122151    0.128456    0.159942    0.160024
     0.161725    0.169340    0.220395    0.221573    0.235316    0.345200
     0.347574    0.348127    0.348135    0.348201    0.349741    0.404765
     0.431557    0.472554    0.485684    0.972845

 Minimum Search - Taking Simple RFO Step
 Searching for Lamda that Minimizes Along All modes
 Value Taken    Lamda =  -0.01408599
 Calculated Step too Large.  Step scaled by  0.553793
 Step Taken.  Stepsize is  0.300000

                             Maximum     Tolerance    Cnvgd?
         Gradient           0.017791      0.000300      NO
         Displacement       0.129264      0.001200      NO
         Energy change     -0.009345      0.000001      NO


 New Cartesian Coordinates Obtained by Inverse Iteration

 Displacement from previous Coordinates is:  0.207178
 ----------------------------------------------------------------
             Standard Nuclear Orientation (Angstroms)
    I     Atom           X                Y                Z
 ----------------------------------------------------------------
    1      C       0.1954471380    -0.2113565394     0.0375836556
    2      C       0.0528630671     0.0708897710     1.5048928610
    3      C       1.0222676214     0.4590985080     2.3241379255
    4      O       2.1948386502    -2.4502852304     1.3095496709
    5      C       2.0142511133    -2.0424837904     0.1911447390
    6      C       0.6725893219    -1.6677203964    -0.3762503331
    7      H       0.8751406288     0.5050441158    -0.4330039936
    8      H      -0.7729563528    -0.1375933247    -0.4623328721
    9      H      -0.9427242973    -0.0790492465     1.9217531315
   10      H       0.8546742172     0.6021535345     3.3865303623
   11      H       2.0315667401     0.6841428404     1.9908123129
   12      H       0.7035239597    -1.6479012715    -1.4680609002
   13      H      -0.0781363747    -2.3794084336    -0.0279971300
   14      H       2.8841156542    -1.8868563919    -0.4970939795
 ----------------------------------------------------------------
 Nuclear Repulsion Energy =   221.1265112390 hartrees
 There are       23 alpha and       23 beta electrons
 Applying Cartesian multipole field
    Component          Value
    ---------          -----
     (2,0,0)        1.00000E-11
     (0,2,0)        2.00000E-11
     (0,0,2)       -3.00000E-11
 Nucleus-field energy     =     0.0000000017 hartrees
 Requested basis set is 6-31G(d,p)
 There are 48 shells and 130 basis functions
 A cutoff of  1.0D-11 yielded   1080 shell pairs
 There are      8222 function pairs
 Smallest overlap matrix eigenvalue = 4.41E-03
 Guess MOs from SCF MO coefficient file

 -----------------------------------------------------------------------
  General SCF calculation program by
  Eric Jon Sundstrom, Paul Horn, Yuezhi Mao, Dmitri Zuev, Alec White,
  David Stuck, Shaama M.S., Shane Yost, Joonho Lee, David Small,
  Daniel Levine, Susi Lehtola, Hugh Burton, Evgeny Epifanovsky
 -----------------------------------------------------------------------
 Exchange:     0.2000 Hartree-Fock + 0.0800 Slater + 0.7200 B88
 Correlation:  0.1900 VWN1RPA + 0.8100 LYP
 Using SG-1 standard quadrature grid
 using 8 threads for integral computing
 -------------------------------------------------------
 OpenMP Integral computing Module                
 Release: version 1.0, May 2013, Q-Chem Inc. Pittsburgh 
 -------------------------------------------------------
 -------------------------------------------------------
 OpenMP BLAS3 based DFT computing Module                
 Release: version 1.0, May 2013, Q-Chem Inc. Pittsburgh 
 -------------------------------------------------------
 A restricted SCF calculation will be
 performed using DIIS
 SCF converges when DIIS error is below 1.0e-08
 ---------------------------------------
  Cycle       Energy         DIIS error
 ---------------------------------------
    1    -270.5348912251      8.17e-04  
    2    -270.5376849375      1.82e-04  
    3    -270.5376927369      1.89e-04  
    4    -270.5377668386      1.72e-05  
    5    -270.5377674342      6.36e-06  
    6    -270.5377674811      4.43e-06  
    7    -270.5377675152      1.15e-06  
    8    -270.5377675177      2.67e-07  
    9    -270.5377675179      1.91e-07  
   10    -270.5377675179      2.50e-08  
   11    -270.5377675179      4.76e-09  Convergence criterion met
 ---------------------------------------
 SCF time:   CPU 13.14s  wall 2.00s 
 SCF   energy in the final basis set =     -270.5377675179
 Total energy in the final basis set =     -270.5377675179
 
 --------------------------------------------------------------
 
                    Orbital Energies (a.u.)
 --------------------------------------------------------------
 
 Alpha MOs
 -- Occupied --
-19.146 -10.273 -10.205 -10.201 -10.190 -10.179  -1.045  -0.808
 -0.748  -0.665  -0.573  -0.552  -0.489  -0.465  -0.440  -0.426
 -0.417  -0.389  -0.370  -0.353  -0.336  -0.262  -0.243
 -- Virtual --
 -0.025   0.015   0.103   0.111   0.136   0.141   0.159   0.173
  0.178   0.194   0.225   0.267   0.280   0.309   0.365   0.477
  0.512   0.526   0.550   0.557   0.595   0.611   0.635   0.652
  0.676   0.689   0.726   0.747   0.780   0.802   0.828   0.834
  0.851   0.873   0.888   0.903   0.931   0.936   0.946   1.037
  1.069   1.108   1.140   1.210   1.291   1.359   1.378   1.416
  1.468   1.481   1.536   1.560   1.640   1.663   1.780   1.789
  1.807   1.821   1.850   1.890   1.955   1.984   2.005   2.014
  2.053   2.079   2.116   2.140   2.160   2.218   2.228   2.272
  2.278   2.380   2.401   2.424   2.438   2.470   2.493   2.534
  2.597   2.620   2.645   2.663   2.693   2.743   2.779   2.848
  2.858   2.881   2.986   3.012   3.064   3.219   3.262   3.308
  3.385   3.420   3.473   3.519   3.695   3.916   4.135   4.260
  4.409   4.591   4.668
 --------------------------------------------------------------
 
          Ground-State Mulliken Net Atomic Charges

     Atom                 Charge (a.u.)
  ----------------------------------------
      1 C                    -0.232048
      2 C                    -0.024701
      3 C                    -0.216175
      4 O                    -0.380815
      5 C                     0.291869
      6 C                    -0.235981
      7 H                     0.112625
      8 H                     0.113136
      9 H                     0.086760
     10 H                     0.101517
     11 H                     0.093620
     12 H                     0.103401
     13 H                     0.129753
     14 H                     0.057038
  ----------------------------------------
  Sum of atomic charges =     0.000000

 -----------------------------------------------------------------
                    Cartesian Multipole Moments
 -----------------------------------------------------------------
    Charge (ESU x 10^10)
                -0.0000
    Dipole Moment (Debye)
         X      -1.0728      Y       1.0734      Z      -2.0739
       Tot       2.5698
    Quadrupole Moments (Debye-Ang)
        XX     -38.0977     XY       4.7017     YY     -41.5419
        XZ      -4.7052     YZ       5.7790     ZZ     -38.1043
    Octopole Moments (Debye-Ang^2)
       XXX    -113.0698    XXY      43.9048    XYY     -47.8510
       YYY     108.7405    XXZ     -38.0605    XYZ      13.6061
       YYZ     -44.4497    XZZ     -41.6567    YZZ      42.9448
       ZZZ     -84.6047
    Hexadecapole Moments (Debye-Ang^3)
      XXXX    -443.5713   XXXY     193.1458   XXYY    -183.6164
      XYYY     197.9068   YYYY    -530.4903   XXXZ    -114.1702
      XXYZ      34.6765   XYYZ     -61.7356   YYYZ      43.5376
      XXZZ    -155.0002   XYZZ      76.2053   YYZZ    -179.8451
      XZZZ     -96.5624   YZZZ      34.2732   ZZZZ    -403.0343
 -----------------------------------------------------------------
 Calculating analytic gradient of the SCF energy
 Gradient of SCF Energy
            1           2           3           4           5           6
    1  -0.0046793   0.0063485  -0.0062175  -0.0000875  -0.0049077   0.0061441
    2   0.0090052   0.0053535  -0.0063460   0.0058587  -0.0056343  -0.0119548
    3   0.0063311   0.0007266  -0.0043014  -0.0115041   0.0131963  -0.0070501
            7           8           9          10          11          12
    1  -0.0004099   0.0014133  -0.0004285   0.0023097  -0.0007678  -0.0006197
    2  -0.0017129  -0.0072161   0.0031383  -0.0005018   0.0026778   0.0055474
    3   0.0000697   0.0001213  -0.0004193  -0.0003582   0.0024919   0.0015986
           13          14
    1   0.0002781   0.0016243
    2   0.0025391  -0.0007541
    3   0.0001190  -0.0010213
 Max gradient component =       1.320E-02
 RMS gradient           =       5.044E-03
 Gradient time:  CPU 5.25 s  wall 0.66 s
 Geometry Optimization Parameters
   NAtoms,    NIC,     NZ,  NCons,   NDum,   NFix, NCnnct, MaxDiis
       14      87      14       0       0       0       0       0

 Cartesian Hessian Update
 Hessian Updated using BFGS Update


** GEOMETRY OPTIMIZATION IN DELOCALIZED INTERNAL COORDINATES **
   Searching for a Minimum

   Optimization Cycle:   7

                       Coordinates (Angstroms)
     ATOM                X               Y               Z
      1  C         0.1954471380   -0.2113565394    0.0375836556
      2  C         0.0528630671    0.0708897710    1.5048928610
      3  C         1.0222676214    0.4590985080    2.3241379255
      4  O         2.1948386502   -2.4502852304    1.3095496709
      5  C         2.0142511133   -2.0424837904    0.1911447390
      6  C         0.6725893219   -1.6677203964   -0.3762503331
      7  H         0.8751406288    0.5050441158   -0.4330039936
      8  H        -0.7729563528   -0.1375933247   -0.4623328721
      9  H        -0.9427242973   -0.0790492465    1.9217531315
     10  H         0.8546742172    0.6021535345    3.3865303623
     11  H         2.0315667401    0.6841428404    1.9908123129
     12  H         0.7035239597   -1.6479012715   -1.4680609002
     13  H        -0.0781363747   -2.3794084336   -0.0279971300
     14  H         2.8841156542   -1.8868563919   -0.4970939795
   Point Group: c1    Number of degrees of freedom:    36


   Energy is   -270.537767518

 Hessian Updated using BFGS Update

 35 Hessian modes will be used to form the next step
[...]
       14      87      14       0       0       0       0       0

 Cartesian Hessian Update
 Hessian Updated using BFGS Update


** GEOMETRY OPTIMIZATION IN DELOCALIZED INTERNAL COORDINATES **
   Searching for a Minimum

   Optimization Cycle:  23

                       Coordinates (Angstroms)
     ATOM                X               Y               Z
      1  C         0.3257798696   -0.2212972158    0.0536975035
      2  C         0.1846752631   -0.0382003546    1.5414593946
      3  C         0.9409430573    0.7646419113    2.2897105879
      4  O         2.0901579265   -3.2800719149    0.6827667045
      5  C         1.9198854487   -2.2038786267    0.1557389151
      6  C         0.5879626907   -1.6897005994   -0.3463961930
      7  H         1.1359202220    0.4165817885   -0.3219744423
      8  H        -0.5916966847    0.1099763938   -0.4502934062
      9  H        -0.5980244936   -0.6285338671    2.0196369164
     10  H         0.7932151019    0.8524050361    3.3616844355
     11  H         1.7345906603    1.3685298722    1.8557774505
     12  H         0.6063464110   -1.7635797089   -1.4439881190
     13  H        -0.1989326406   -2.3584560280    0.0162927865
     14  H         2.7766382549   -1.5097425416   -0.0124470839
   Point Group: c1    Number of degrees of freedom:    36


   Energy is   -270.545194643

 Hessian Updated using BFGS Update

 36 Hessian modes will be used to form the next step
  Hessian Eigenvalues:
     0.001511    0.002614    0.003704    0.020528    0.025196    0.038998
     0.041467    0.056314    0.057582    0.062712    0.065495    0.074092
     0.080764    0.115282    0.119577    0.140642    0.160138    0.160936
     0.162852    0.191859    0.221213    0.223456    0.224098    0.257589
     0.341826    0.346906    0.348125    0.348246    0.348302    0.348429
     0.348644    0.349821    0.385642    0.427525    0.474458    0.795907

 Minimum Search - Taking Simple RFO Step
 Searching for Lamda that Minimizes Along All modes
 Value Taken    Lamda =   0.00000000
 Step Taken.  Stepsize is  0.005069

                             Maximum     Tolerance    Cnvgd?
         Gradient           0.000083      0.000300     YES
         Displacement       0.002251      0.001200      NO
         Energy change     -0.000001      0.000001      NO


 New Cartesian Coordinates Obtained by Inverse Iteration

 Displacement from previous Coordinates is:  0.007813
 ----------------------------------------------------------------
             Standard Nuclear Orientation (Angstroms)
    I     Atom           X                Y                Z
 ----------------------------------------------------------------
    1      C       0.3258537309    -0.2213864549     0.0535484203
    2      C       0.1853952363    -0.0387464310     1.5414443373
    3      C       0.9409586692     0.7649450084     2.2894579239
    4      O       2.0893706821    -3.2799493054     0.6835164812
    5      C       1.9194204351    -2.2038969585     0.1562147090
    6      C       0.5877052110    -1.6896255251    -0.3469669643
    7      H       1.1357368591     0.4165014275    -0.3226102455
    8      H      -0.5918454277     0.1099421211    -0.4500283456
    9      H      -0.5962760055    -0.6302402976     2.0198738237
   10      H       0.7938789033     0.8522631931     3.3615639136
   11      H       1.7341126676     1.3695682395     1.8556245908
   12      H       0.6066027309    -1.7631854229    -1.4445336479
   13      H      -0.1995225113    -2.3582318340     0.0152410163
   14      H       2.7760699061    -1.5092836154    -0.0106805625
 ----------------------------------------------------------------
 Nuclear Repulsion Energy =   216.7476382812 hartrees
 There are       23 alpha and       23 beta electrons
 Applying Cartesian multipole field
    Component          Value
    ---------          -----
     (2,0,0)        1.00000E-11
     (0,2,0)        2.00000E-11
     (0,0,2)       -3.00000E-11
 Nucleus-field energy     =     0.0000000059 hartrees
 Requested basis set is 6-31G(d,p)
 There are 48 shells and 130 basis functions
 A cutoff of  1.0D-11 yielded   1066 shell pairs
 There are      8035 function pairs
 Smallest overlap matrix eigenvalue = 3.62E-03
 Guess MOs from SCF MO coefficient file

 -----------------------------------------------------------------------
  General SCF calculation program by
  Eric Jon Sundstrom, Paul Horn, Yuezhi Mao, Dmitri Zuev, Alec White,
  David Stuck, Shaama M.S., Shane Yost, Joonho Lee, David Small,
  Daniel Levine, Susi Lehtola, Hugh Burton, Evgeny Epifanovsky
 -----------------------------------------------------------------------
 Exchange:     0.2000 Hartree-Fock + 0.0800 Slater + 0.7200 B88
 Correlation:  0.1900 VWN1RPA + 0.8100 LYP
 Using SG-1 standard quadrature grid
 using 8 threads for integral computing
 -------------------------------------------------------
 OpenMP Integral computing Module                
 Release: version 1.0, May 2013, Q-Chem Inc. Pittsburgh 
 -------------------------------------------------------
 -------------------------------------------------------
 OpenMP BLAS3 based DFT computing Module                
 Release: version 1.0, May 2013, Q-Chem Inc. Pittsburgh 
 -------------------------------------------------------
 A restricted SCF calculation will be
 performed using DIIS
 SCF converges when DIIS error is below 1.0e-08
 ---------------------------------------
  Cycle       Energy         DIIS error
 ---------------------------------------
    1    -270.5451935554      1.59e-05  
    2    -270.5451948062      2.71e-06  
    3    -270.5451948110      4.25e-06  
    4    -270.5451948395      7.47e-07  
    5    -270.5451948406      2.40e-07  
    6    -270.5451948407      9.88e-08  
    7    -270.5451948407      4.34e-08  
    8    -270.5451948407      9.92e-09  Convergence criterion met
 ---------------------------------------
 SCF time:   CPU 9.27s  wall 1.00s 
 SCF   energy in the final basis set =     -270.5451948407
 Total energy in the final basis set =     -270.5451948407
 
 --------------------------------------------------------------
 
                    Orbital Energies (a.u.)
 --------------------------------------------------------------
 
 Alpha MOs
 -- Occupied --
-19.148 -10.277 -10.205 -10.202 -10.197 -10.186  -1.044  -0.817
 -0.752  -0.663  -0.578  -0.564  -0.481  -0.465  -0.449  -0.438
 -0.414  -0.391  -0.370  -0.360  -0.343  -0.266  -0.248
 -- Virtual --
 -0.022   0.012   0.101   0.107   0.126   0.147   0.155   0.168
  0.169   0.186   0.220   0.268   0.272   0.313   0.366   0.468
  0.496   0.520   0.554   0.561   0.601   0.625   0.644   0.650
  0.674   0.677   0.717   0.757   0.766   0.799   0.825   0.829
  0.853   0.864   0.893   0.904   0.921   0.938   0.946   1.001
  1.083   1.086   1.145   1.238   1.276   1.324   1.374   1.437
  1.463   1.496   1.556   1.580   1.589   1.690   1.755   1.782
  1.806   1.820   1.870   1.884   1.903   1.955   2.001   2.010
  2.013   2.083   2.113   2.144   2.167   2.190   2.221   2.252
  2.292   2.360   2.380   2.415   2.440   2.496   2.509   2.553
  2.573   2.589   2.645   2.663   2.710   2.762   2.772   2.833
  2.853   2.876   2.967   2.977   3.015   3.219   3.273   3.288
  3.393   3.429   3.439   3.520   3.666   3.903   4.166   4.247
  4.434   4.568   4.644
 --------------------------------------------------------------
 
          Ground-State Mulliken Net Atomic Charges

     Atom                 Charge (a.u.)
  ----------------------------------------
      1 C                    -0.230901
      2 C                    -0.018502
      3 C                    -0.239242
      4 O                    -0.392484
      5 C                     0.312940
      6 C                    -0.252557
      7 H                     0.103622
      8 H                     0.117642
      9 H                     0.091177
     10 H                     0.103716
     11 H                     0.094762
     12 H                     0.124080
     13 H                     0.126488
     14 H                     0.059260
  ----------------------------------------
  Sum of atomic charges =    -0.000000

 -----------------------------------------------------------------
                    Cartesian Multipole Moments
 -----------------------------------------------------------------
    Charge (ESU x 10^10)
                -0.0000
    Dipole Moment (Debye)
         X      -1.0131      Y       2.2128      Z      -1.2463
       Tot       2.7343
    Quadrupole Moments (Debye-Ang)
        XX     -38.6890     XY       7.5446     YY     -48.4478
        XZ      -2.7604     YZ       4.2589     ZZ     -35.6641
    Octopole Moments (Debye-Ang^2)
       XXX    -111.6981    XXY      52.6499    XYY     -62.1959
       YYY     156.7764    XXZ     -32.0563    XYZ      11.1196
       YYZ     -40.7085    XZZ     -36.9044    YZZ      39.6659
       ZZZ     -73.5463
    Hexadecapole Moments (Debye-Ang^3)
      XXXX    -403.5782   XXXY     215.5357   XXYY    -239.1521
      XYYY     286.8871   YYYY    -869.0352   XXXZ     -83.5066
      XXYZ      17.5886   XYYZ     -51.8131   YYYZ      36.8224
      XXZZ    -134.0751   XYZZ      69.4854   YYZZ    -186.7105
      XZZZ     -71.1854   YZZZ       1.3538   ZZZZ    -352.8356
 -----------------------------------------------------------------
 Calculating analytic gradient of the SCF energy
 Gradient of SCF Energy
            1           2           3           4           5           6
    1  -0.0000353  -0.0000071   0.0000305  -0.0000226  -0.0000459   0.0000154
    2   0.0000177  -0.0000080  -0.0000128  -0.0000268   0.0000125  -0.0000024
    3  -0.0000435  -0.0000021   0.0000144  -0.0000042  -0.0000026  -0.0000176
            7           8           9          10          11          12
    1   0.0000377   0.0000142  -0.0000019   0.0000129   0.0000081   0.0000016
    2  -0.0000180   0.0000022   0.0000159  -0.0000062  -0.0000018   0.0000232
    3   0.0000215   0.0000063   0.0000052   0.0000048   0.0000105  -0.0000004
           13          14
    1  -0.0000121   0.0000047
    2   0.0000216  -0.0000172
    3   0.0000081  -0.0000005
 Max gradient component =       4.592E-05
 RMS gradient           =       1.801E-05
 Gradient time:  CPU 5.04 s  wall 0.63 s
 Geometry Optimization Parameters
   NAtoms,    NIC,     NZ,  NCons,   NDum,   NFix, NCnnct, MaxDiis
       14      87      14       0       0       0       0       0

 Cartesian Hessian Update
 Hessian Updated using BFGS Update


** GEOMETRY OPTIMIZATION IN DELOCALIZED INTERNAL COORDINATES **
   Searching for a Minimum

   Optimization Cycle:  24

                       Coordinates (Angstroms)
     ATOM                X               Y               Z
      1  C         0.3258537309   -0.2213864549    0.0535484203
      2  C         0.1853952363   -0.0387464310    1.5414443373
      3  C         0.9409586692    0.7649450084    2.2894579239
      4  O         2.0893706821   -3.2799493054    0.6835164812
      5  C         1.9194204351   -2.2038969585    0.1562147090
      6  C         0.5877052110   -1.6896255251   -0.3469669643
      7  H         1.1357368591    0.4165014275   -0.3226102455
      8  H        -0.5918454277    0.1099421211   -0.4500283456
      9  H        -0.5962760055   -0.6302402976    2.0198738237
     10  H         0.7938789033    0.8522631931    3.3615639136
     11  H         1.7341126676    1.3695682395    1.8556245908
     12  H         0.6066027309   -1.7631854229   -1.4445336479
     13  H        -0.1995225113   -2.3582318340    0.0152410163
     14  H         2.7760699061   -1.5092836154   -0.0106805625
   Point Group: c1    Number of degrees of freedom:    36


   Energy is   -270.545194841

 Hessian Updated using BFGS Update

 36 Hessian modes will be used to form the next step
  Hessian Eigenvalues:
     0.001517    0.002835    0.003721    0.020528    0.025033    0.039272
     0.043683    0.050364    0.057412    0.059950    0.065424    0.075766
     0.079435    0.115356    0.119200    0.142045    0.158715    0.160346
     0.162722    0.183085    0.219833    0.221891    0.223721    0.265591
     0.342378    0.346784    0.348013    0.348194    0.348247    0.348315
     0.348687    0.349726    0.382097    0.423116    0.475060    0.791721

 Minimum Search - Taking Simple RFO Step
 Searching for Lamda that Minimizes Along All modes
 Value Taken    Lamda =   0.00000000
 Step Taken.  Stepsize is  0.001288

                             Maximum     Tolerance    Cnvgd?
         Gradient           0.000033      0.000300     YES
         Displacement       0.000569      0.001200     YES
         Energy change     -0.000000      0.000001     YES


                       Distance Matrix (Angstroms)
             C (  1)   C (  2)   C (  3)   O (  4)   C (  5)   C (  6)
   C (  2)  1.505630
   C (  3)  2.520019  1.332787
   O (  4)  3.586315  3.855718  4.501007
   C (  5)  2.545652  3.100578  3.784460  1.210297
   C (  6)  1.544249  2.540345  3.619453  2.417855  1.513649
   H (  7)  1.097409  2.141284  2.642395  3.947842  2.776674  2.176397
   H (  8)  1.097971  2.142936  3.206759  4.468244  3.468117  2.154160
   H (  9)  2.209959  1.090766  2.093396  4.002438  3.504048  2.850622
   H ( 10)  3.509236  2.115889  1.085665  5.091701  4.569598  4.500767
   H ( 11)  2.786002  2.116739  1.087600  4.808124  3.961311  3.940092
   H ( 12)  2.167998  3.473783  4.521718  3.004625  2.116628  1.100191
   H ( 13)  2.200817  2.803118  4.028274  2.556401  2.129228  1.094512
   H ( 14)  2.768820  3.359043  3.718923  2.022059  1.115433  2.221385
             H (  7)   H (  8)   H (  9)   H ( 10)   H ( 11)   H ( 12)
   H (  8)  1.759191
   H (  9)  3.095605  2.578431
   H ( 10)  3.725573  4.123046  2.435258
   H ( 11)  2.451754  3.508956  3.075211  1.849188
   H ( 12)  2.507933  2.435965  3.838307  5.474871  4.687907
   H ( 13)  3.097774  2.542101  2.676177  4.742573  4.585025  1.770554
   H ( 14)  2.548851  3.762682  4.033433  4.569247  3.585604  2.612851
             H ( 13)
   H ( 14)  3.094436
 
 Final energy is   -270.545194840750     


 ******************************
 **  OPTIMIZATION CONVERGED  **
 ******************************

                       Coordinates (Angstroms)
     ATOM                X               Y               Z
      1  C         0.3258537309   -0.2213864549    0.0535484203
      2  C         0.1853952363   -0.0387464310    1.5414443373
      3  C         0.9409586692    0.7649450084    2.2894579239
      4  O         2.0893706821   -3.2799493054    0.6835164812
      5  C         1.9194204351   -2.2038969585    0.1562147090
      6  C         0.5877052110   -1.6896255251   -0.3469669643
      7  H         1.1357368591    0.4165014275   -0.3226102455
      8  H        -0.5918454277    0.1099421211   -0.4500283456
      9  H        -0.5962760055   -0.6302402976    2.0198738237
     10  H         0.7938789033    0.8522631931    3.3615639136
     11  H         1.7341126676    1.3695682395    1.8556245908
     12  H         0.6066027309   -1.7631854229   -1.4445336479
     13  H        -0.1995225113   -2.3582318340    0.0152410163
     14  H         2.7760699061   -1.5092836154   -0.0106805625

Z-matrix Print:
$molecule
0 1
C 
H  1 1.115433
O  1 1.210297 2 120.730671
C  1 1.513649 2 114.479779 3 -179.005888 0
H  4 1.094512 1 108.375354 2 -170.428244 0
H  4 1.100191 1 107.086081 2 73.809424 0
C  4 1.544249 1 112.705760 2 -46.021205 0
H  7 1.097409 4 109.792651 1 57.328839 0
H  7 1.097971 4 108.040135 1 173.106701 0
C  7 1.505630 4 112.796367 1 -65.343673 0
H  10 1.090766 7 115.755057 4 -57.291634 0
C  10 1.332787 7 125.092114 4 122.026657 0
H  12 1.085665 10 121.730831 7 -179.778977 0
H  12 1.087600 10 121.653733 7 0.451567 0
$end

 
 --------------------------------------------------------------
 
                    Orbital Energies (a.u.)
 --------------------------------------------------------------
 
 Alpha MOs
 -- Occupied --
-19.148 -10.277 -10.205 -10.202 -10.197 -10.186  -1.044  -0.817
 -0.752  -0.663  -0.578  -0.564  -0.481  -0.465  -0.449  -0.438
 -0.414  -0.391  -0.370  -0.360  -0.343  -0.266  -0.248
 -- Virtual --
 -0.022   0.012   0.101   0.107   0.126   0.147   0.155   0.168
  0.169   0.186   0.220   0.268   0.272   0.313   0.366   0.468
  0.496   0.520   0.554   0.561   0.601   0.625   0.644   0.650
  0.674   0.677   0.717   0.757   0.766   0.799   0.825   0.829
  0.853   0.864   0.893   0.904   0.921   0.938   0.946   1.001
  1.083   1.086   1.145   1.238   1.276   1.324   1.374   1.437
  1.463   1.496   1.556   1.580   1.589   1.690   1.755   1.782
  1.806   1.820   1.870   1.884   1.903   1.955   2.001   2.010
  2.013   2.083   2.113   2.144   2.167   2.190   2.221   2.252
  2.292   2.360   2.380   2.415   2.440   2.496   2.509   2.553
  2.573   2.589   2.645   2.663   2.710   2.762   2.772   2.833
  2.853   2.876   2.967   2.977   3.015   3.219   3.273   3.288
  3.393   3.429   3.439   3.520   3.666   3.903   4.166   4.247
  4.434   4.568   4.644
 --------------------------------------------------------------
 
          Ground-State Mulliken Net Atomic Charges

     Atom                 Charge (a.u.)
  ----------------------------------------
      1 C                    -0.230901
      2 C                    -0.018502
      3 C                    -0.239242
      4 O                    -0.392484
      5 C                     0.312940
      6 C                    -0.252557
      7 H                     0.103622
      8 H                     0.117642
      9 H                     0.091177
     10 H                     0.103716
     11 H                     0.094762
     12 H                     0.124080
     13 H                     0.126488
     14 H                     0.059260
  ----------------------------------------
  Sum of atomic charges =    -0.000000

 -----------------------------------------------------------------
                    Cartesian Multipole Moments
 -----------------------------------------------------------------
    Charge (ESU x 10^10)
                -0.0000
    Dipole Moment (Debye)
         X      -1.0131      Y       2.2128      Z      -1.2463
       Tot       2.7343
    Quadrupole Moments (Debye-Ang)
        XX     -38.6890     XY       7.5446     YY     -48.4478
        XZ      -2.7604     YZ       4.2589     ZZ     -35.6641
    Octopole Moments (Debye-Ang^2)
       XXX    -111.6981    XXY      52.6499    XYY     -62.1959
       YYY     156.7764    XXZ     -32.0563    XYZ      11.1196
       YYZ     -40.7085    XZZ     -36.9044    YZZ      39.6659
       ZZZ     -73.5463
    Hexadecapole Moments (Debye-Ang^3)
      XXXX    -403.5782   XXXY     215.5357   XXYY    -239.1521
      XYYY     286.8871   YYYY    -869.0352   XXXZ     -83.5066
      XXYZ      17.5886   XYYZ     -51.8131   YYYZ      36.8224
      XXZZ    -134.0751   XYZZ      69.4854   YYZZ    -186.7105
      XZZZ     -71.1854   YZZZ       1.3538   ZZZZ    -352.8356
 -----------------------------------------------------------------
Archival summary:
1\1\node11\OPT\ProcedureUnspecified\6-31G**\158\songzl\MonMar2721:30:212023MonMar2721:30:212023\0\\#,OPT,ProcedureUnspecified,6-31G**,\\0,1\C\H,1,1.11543\O,1,1.2103,2,120.731\C,1,1.51365,2,114.48,3,-179.006,0\H,4,1.09451,1,108.375,2,-170.428,0\H,4,1.10019,1,107.086,2,73.8094,0\C,4,1.54425,1,112.706,2,-46.0212,0\H,7,1.09741,4,109.793,1,57.3288,0\H,7,1.09797,4,108.04,1,173.107,0\C,7,1.50563,4,112.796,1,-65.3437,0\H,10,1.09077,7,115.755,4,-57.2916,0\C,10,1.33279,7,125.092,4,122.027,0\H,12,1.08566,10,121.731,7,-179.779,0\H,12,1.0876,10,121.654,7,0.451567,0\\\@

 Total job time:  58.13s(wall), 462.36s(cpu) 
 Mon Mar 27 21:30:21 2023

        *************************************************************
        *                                                           *
        *  Thank you very much for using Q-Chem.  Have a nice day.  *
        *                                                           *
        *************************************************************


