
Running Job 1 of 1 baker_set_reactant.inp
qchem baker_set_reactant.inp_29438.0 /tmp/songzl/qchem_baker_set/qchem29438/ 1
/apps/apps/qchem/qc51/exe/qcprog.exe_s baker_set_reactant.inp_29438.0 /tmp/songzl/qchem_baker_set/qchem29438/
Check license passed

                  Welcome to Q-Chem
     A Quantum Leap Into The Future Of Chemistry


 Q-Chem 5.1, Q-Chem, Inc., Pleasanton, CA (2018)

 Yihan Shao,  Zhengting Gan,  E. Epifanovsky,  A. T. B. Gilbert,  M. Wormit,  
 J. Kussmann,  A. W. Lange,  A. Behn,  Jia Deng,  Xintian Feng,  D. Ghosh,  
 M. Goldey,  P. R. Horn,  L. D. Jacobson,  I. Kaliman,  T. Kus,  A. Landau,  
 Jie Liu,  E. I. Proynov,  R. M. Richard,  R. P. Steele,  E. J. Sundstrom,  
 H. L. Woodcock III,  P. M. Zimmerman,  D. Zuev,  B. Albrecht,  E. Alguire,  
 S. A. Baeppler,  D. Barton,  Z. Benda,  Y. A. Bernard,  E. J. Berquist,  
 K. B. Bravaya,  H. Burton,  D. Casanova,  Chun-Min Chang,  Yunqing Chen,  
 A. Chien,  K. D. Closser,  M. P. Coons,  S. Coriani,  S. Dasgupta,  
 A. L. Dempwolff,  M. Diedenhofen,  Hainam Do,  R. G. Edgar,  Po-Tung Fang,  
 S. Faraji,  S. Fatehi,  Qingguo Feng,  K. D. Fenk,  J. Fosso-Tande,  
 Qinghui Ge,  A. Ghysels,  G. Gidofalvi,  J. Gomes,  J. Gonthier,  A. Gunina,  
 D. Hait,  M. W. D. Hanson-Heine,  P. H. P. Harbach,  A. W. Hauser,  
 J. E. Herr,  E. G. Hohenstein,  Z. C. Holden,  Kerwin Hui,  B. C. Huynh,  
 T.-C. Jagau,  Hyunjun Ji,  B. Kaduk,  K. Khistyaev,  Jaehoon Kim,  
 P. Klunzinger,  K. Koh,  D. Kosenkov,  L. Koulias,  T. Kowalczyk,  
 C. M. Krauter,  A. Kunitsa,  Ka Un Lao,  A. Laurent,  K. V. Lawler,  
 Joonho Lee,  D. Lefrancois,  S. Lehtola,  D. S. Levine,  Yi-Pei Li,  
 You-Sheng Lin,  Fenglai Liu,  E. Livshits,  A. Luenser,  P. Manohar,  
 E. Mansoor,  S. F. Manzer,  Shan-Ping Mao,  Yuezhi Mao,  N. Mardirossian,  
 A. V. Marenich,  T. Markovich,  L. A. Martinez-Martinez,  S. A. Maurer,  
 N. J. Mayhall,  S. C. McKenzie,  J.-M. Mewes,  A. F. Morrison,  
 J. W. Mullinax,  K. Nanda,  T. S. Nguyen-Beck,  R. Olivares-Amaya,  
 J. A. Parkhill,  T. M. Perrine,  F. Plasser,  P. Pokhilko,  S. Prager,  
 A. Prociuk,  E. Ramos,  D. R. Rehn,  F. Rob,  M. Schneider,  N. Sergueev,  
 S. M. Sharada,  S. Sharma,  D. W. Small,  T. Stauch,  T. Stein,  
 Yu-Chuan Su,  A. J. W. Thom,  A. Tkatchenko,  T. Tsuchimochi,  N. M. Tubman,  
 L. Vogt,  M. L. Vidal,  O. Vydrov,  M. A. Watson,  J. Wenzel,  
 M. de Wergifosse,  T. A. Wesolowski,  A. White,  J. Witte,  A. Yamada,  
 Jun Yang,  K. Yao,  S. Yeganeh,  S. R. Yost,  Zhi-Qiang You,  A. Zech,  
 Igor Ying Zhang,  Xing Zhang,  Yan Zhao,  Ying Zhu,  B. R. Brooks,  
 G. K. L. Chan,  C. J. Cramer,  M. S. Gordon,  W. J. Hehre,  A. Klamt,  
 M. W. Schmidt,  C. D. Sherrill,  D. G. Truhlar,  A. Aspuru-Guzik,  R. Baer,  
 A. T. Bell,  N. A. Besley,  Jeng-Da Chai,  A. E. DePrince, III,  
 R. A. DiStasio Jr.,  A. Dreuw,  B. D. Dunietz,  T. R. Furlani,  
 Chao-Ping Hsu,  Yousung Jung,  Jing Kong,  D. S. Lambrecht,  WanZhen Liang,  
 C. Ochsenfeld,  V. A. Rassolov,  L. V. Slipchenko,  J. E. Subotnik,  
 T. Van Voorhis,  J. M. Herbert,  A. I. Krylov,  P. M. W. Gill,  M. Head-Gordon

 Contributors to earlier versions of Q-Chem not listed above: 
 R. D. Adamson,  B. Austin,  J. Baker,  G. J. O. Beran,  K. Brandhorst,  
 S. T. Brown,  E. F. C. Byrd,  A. K. Chakraborty,  C.-L. Cheng,  
 Siu Hung Chien,  D. M. Chipman,  D. L. Crittenden,  H. Dachsel,  
 R. J. Doerksen,  A. D. Dutoi,  L. Fusti-Molnar,  W. A. Goddard III,  
 A. Golubeva-Zadorozhnaya,  S. R. Gwaltney,  G. Hawkins,  A. Heyden,  
 S. Hirata,  G. Kedziora,  F. J. Keil,  C. Kelley,  Jihan Kim,  R. A. King,  
 R. Z. Khaliullin,  P. P. Korambath,  W. Kurlancheek,  A. M. Lee,  M. S. Lee,  
 S. V. Levchenko,  Ching Yeh Lin,  D. Liotard,  R. C. Lochan,  I. Lotan,  
 P. E. Maslen,  N. Nair,  D. P. O'Neill,  D. Neuhauser,  E. Neuscamman,  
 C. M. Oana,  R. Olson,  B. Peters,  R. Peverati,  P. A. Pieniazek,  
 Y. M. Rhee,  J. Ritchie,  M. A. Rohrdanz,  E. Rosta,  N. J. Russ,  
 H. F. Schaefer III,  N. E. Schultz,  N. Shenvi,  A. C. Simmonett,  A. Sodt,  
 D. Stuck,  K. S. Thanthiriwatte,  V. Vanovschi,  Tao Wang,  A. Warshel,  
 C. F. Williams,  Q. Wu,  X. Xu,  W. Zhang

 Please cite Q-Chem as follows:
 Y. Shao et al., Mol. Phys. 113, 184-215 (2015)
 DOI: 10.1080/00268976.2014.952696

 Q-Chem 5.1.1 for Intel X86 EM64T Linux

 Parts of Q-Chem use Armadillo 8.300.2 (Tropical Shenanigans).
 http://arma.sourceforge.net/

 Q-Chem begins on Thu Apr  6 12:37:58 2023  

Host: 
0

     Scratch files written to /tmp/songzl/qchem_baker_set/qchem29438//
 Aug318 |scratch|qcdevops|jenkins|workspace|build_RNUM 6609   
Processing $rem in /apps/apps/qchem/qc51/config/preferences.
 MEM_TOTAL  1000 
The previous job contains 0 fragments, simply inherited here
Input Ideriv = 2
Curr. Ideriv = -1
Max.  Ideriv = 2

Checking the input file for inconsistencies... 	...done.

--------------------------------------------------------------
User input:
--------------------------------------------------------------
$molecule
READ ./zmat.inp
$end

$rem
mem_total               230000
mem_static              2048
job_type                optimization
basis                   6-31g**
method                  b3lyp
symmetry                false
sym_ignore              true
geom_opt_max_cycles     500
$end
--------------------------------------------------------------
 ----------------------------------------------------------------
             Standard Nuclear Orientation (Angstroms)
    I     Atom           X                Y                Z
 ----------------------------------------------------------------
    1      C       0.0000000000     1.4000000000     0.0000000000
    2      C       0.0000000000    -1.4000000000     0.0000000000
    3      C       1.2000000000    -0.7700000000     0.0000000000
    4      C       1.2000000000     0.7700000000     0.0000000000
    5      C       0.7119575284    -0.7000000000    -4.0377117874
    6      C       0.7119575284     0.7000000000    -4.0377117874
    7      H       2.1112230668    -1.3439576932     0.0815174143
    8      H       2.1112230668     1.3439576932     0.0815174143
    9      H      -0.0073515082     2.4767723243     0.0831102695
   10      H      -0.0073515082    -2.4767723243     0.0831102695
   11      H      -0.8897523450     0.7960088258    -0.0996766074
   12      H      -0.8897523450    -0.7960088258    -0.0996766074
   13      H      -0.2091333054    -1.2070292878    -4.2845173324
   14      H      -0.2091333054     1.2070292878    -4.2845173324
   15      H       1.6632180475    -1.2070292878    -3.9711931719
   16      H       1.6632180475     1.2070292878    -3.9711931719
 ----------------------------------------------------------------
 Nuclear Repulsion Energy =   195.6989447221 hartrees
 There are       23 alpha and       23 beta electrons
 Requested basis set is 6-31G(d,p)
 There are 54 shells and 140 basis functions

 Total QAlloc Memory Limit 230000 MB
 Mega-Array Size      2002 MB
 MEM_STATIC part      2048 MB
 A cutoff of  1.0D-11 yielded   1196 shell pairs
 There are      8279 function pairs
 
 -------------------------------------------------------
 OpenMP Integral Computing Module                       
 Release: version 1.0, May 2013, Q-Chem Inc. Pittsburgh 
 -------------------------------------------------------
 Integral Job Info:
 Integral job number is                      11
 Integral operator is                         1
 short-range coefficients                     0
 long-range coefficients              100000000
 Omega coefficients                           0
 if combine SR and LR in K                    0
 Integral screening is                        0
 Integral computing path is                   2
 max size of driver memory is            800000
 size of driver memory is                593474
 size of scratch memory is              2361544
 max col of scratch BK array               1296
 max len of scratch array in speh3          155
 max len of scratch index in speh4           18
 max int batch size is                      520
 min int batch size is                       52
 fixed nKL is                                52
 max L of basis functions is                  2
 order of int derivative is                   0
 number of shells is                         54
 number of basis is                         140
 number of cartesian basis is               140
 number of contracted shell pairs          1196
 number of primitive shell pairs           3701
 maxK2 (contraction) of shell pair           36
 max number of K2 of shell pair               1
 max number of CS2 of shell pair            120
 max number of PS2 of shell pair            444
 mem total for path MDJ                  517372
 -------------------------------------------------------
 Smallest overlap matrix eigenvalue = 2.60E-03

 Scale SEOQF with 1.000000e-01/1.000000e-01/1.000000e-01

 Standard Electronic Orientation quadrupole field applied
 Nucleus-field energy     =    -0.0000000226 hartrees
 Guess from superposition of atomic densities
 Warning:  Energy on first SCF cycle will be non-variational
 SAD guess density has 46.000000 electrons

 -----------------------------------------------------------------------
  General SCF calculation program by
  Eric Jon Sundstrom, Paul Horn, Yuezhi Mao, Dmitri Zuev, Alec White,
  David Stuck, Shaama M.S., Shane Yost, Joonho Lee, David Small,
  Daniel Levine, Susi Lehtola, Hugh Burton, Evgeny Epifanovsky
 -----------------------------------------------------------------------
 Exchange:     0.2000 Hartree-Fock + 0.0800 Slater + 0.7200 B88
 Correlation:  0.1900 VWN1RPA + 0.8100 LYP
 Using SG-1 standard quadrature grid
 using 8 threads for integral computing
 -------------------------------------------------------
 OpenMP Integral computing Module                
 Release: version 1.0, May 2013, Q-Chem Inc. Pittsburgh 
 -------------------------------------------------------
 -------------------------------------------------------
 OpenMP BLAS3 based DFT computing Module                
 Release: version 1.0, May 2013, Q-Chem Inc. Pittsburgh 
 -------------------------------------------------------
 A restricted SCF calculation will be
 performed using DIIS
 SCF converges when DIIS error is below 1.0e-08
 ---------------------------------------
  Cycle       Energy         DIIS error
 ---------------------------------------
    1    -235.1695270343      5.39e-02  
    2    -234.4315848265      6.86e-03  
    3    -234.4446247395      6.65e-03  
    4    -234.5613997423      6.11e-04  
    5    -234.5617506638      5.01e-04  
    6    -234.5624049813      5.05e-05  
    7    -234.5624110817      5.03e-06  
    8    -234.5624111458      1.74e-06  
    9    -234.5624111533      4.23e-07  
   10    -234.5624111538      3.38e-08  
   11    -234.5624111538      6.98e-09  Convergence criterion met
 ---------------------------------------
 SCF time:   CPU 14.08s  wall 2.00s 
 SCF   energy in the final basis set =     -234.5624111538
 Total energy in the final basis set =     -234.5624111538
 
 --------------------------------------------------------------
 
                    Orbital Energies (a.u.)
 --------------------------------------------------------------
 
 Alpha MOs
 -- Occupied --
-10.193 -10.193 -10.185 -10.185 -10.177 -10.177  -0.794  -0.738
 -0.714  -0.607  -0.572  -0.521  -0.496  -0.464  -0.427  -0.405
 -0.389  -0.362  -0.358  -0.348  -0.308  -0.249  -0.220
 -- Virtual --
 -0.026   0.008   0.082   0.114   0.114   0.119   0.154   0.157
  0.166   0.182   0.213   0.240   0.244   0.286   0.305   0.337
  0.436   0.464   0.487   0.491   0.558   0.566   0.579   0.582
  0.584   0.628   0.643   0.659   0.670   0.676   0.686   0.701
  0.706   0.824   0.825   0.846   0.853   0.862   0.888   0.904
  0.919   0.921   0.961   0.991   1.060   1.062   1.108   1.165
  1.207   1.235   1.352   1.361   1.390   1.393   1.419   1.459
  1.477   1.493   1.549   1.706   1.839   1.871   1.877   1.885
  1.911   1.924   1.942   1.948   1.963   1.985   2.018   2.037
  2.109   2.142   2.169   2.252   2.266   2.288   2.349   2.382
  2.392   2.415   2.448   2.464   2.479   2.504   2.508   2.522
  2.573   2.604   2.627   2.651   2.685   2.704   2.726   2.762
  2.771   2.802   2.897   2.904   3.072   3.253   3.253   3.330
  3.331   3.454   3.483   3.517   3.544   3.648   3.789   4.117
  4.177   4.233   4.377   4.496   4.645
 --------------------------------------------------------------
 
          Ground-State Mulliken Net Atomic Charges

     Atom                 Charge (a.u.)
  ----------------------------------------
      1 C                    -0.222483
      2 C                    -0.222483
      3 C                    -0.053456
      4 C                    -0.053456
      5 C                    -0.206111
      6 C                    -0.206111
      7 H                     0.087317
      8 H                     0.087317
      9 H                     0.096506
     10 H                     0.096506
     11 H                     0.093393
     12 H                     0.093393
     13 H                     0.102311
     14 H                     0.102311
     15 H                     0.102523
     16 H                     0.102523
  ----------------------------------------
  Sum of atomic charges =    -0.000000

 -----------------------------------------------------------------
                    Cartesian Multipole Moments
 -----------------------------------------------------------------
    Charge (ESU x 10^10)
                -0.0000
    Dipole Moment (Debye)
         X       0.2057      Y       0.0000      Z      -0.1226
       Tot       0.2394
    Quadrupole Moments (Debye-Ang)
        XX     -34.4007     XY      -0.0000     YY     -35.4736
        XZ       0.5885     YZ      -0.0000     ZZ     -41.3598
    Octopole Moments (Debye-Ang^2)
       XXX     -62.2482    XXY       0.0000    XYY     -20.3615
       YYY       0.0000    XXZ      48.9303    XYZ       0.0000
       YYZ      51.0706    XZZ     -28.8447    YZZ       0.0000
       ZZZ     172.6980
    Hexadecapole Moments (Debye-Ang^3)
      XXXX    -208.6458   XXXY      -0.0000   XXYY     -85.6272
      XYYY      -0.0000   YYYY    -304.9027   XXXZ     102.8404
      XXYZ       0.0000   XYYZ      36.0530   YYYZ      -0.0000
      XXZZ    -247.6687   XYZZ      -0.0000   YYZZ    -269.2876
      XZZZ     145.7790   YZZZ      -0.0000   ZZZZ   -1473.5249
 -----------------------------------------------------------------
 Calculating analytic gradient of the SCF energy
 Gradient of SCF Energy
            1           2           3           4           5           6
    1  -0.0370694  -0.0370694   0.0274974   0.0274974  -0.0015481  -0.0015481
    2  -0.0002402   0.0002402  -0.0275307   0.0275307  -0.0793718   0.0793718
    3   0.0022319   0.0022319  -0.0025215  -0.0025215   0.0090806   0.0090806
            7           8           9          10          11          12
    1  -0.0059465  -0.0059465   0.0090850   0.0090850   0.0063749   0.0063749
    2  -0.0021250   0.0021250  -0.0028828   0.0028828  -0.0157345   0.0157345
    3   0.0001578   0.0001578   0.0021420   0.0021420  -0.0021477  -0.0021477
           13          14          15          16
    1  -0.0000582  -0.0000582   0.0016648   0.0016648
    2   0.0087089  -0.0087089   0.0086279  -0.0086279
    3  -0.0045646  -0.0045646  -0.0043785  -0.0043785
 Max gradient component =       7.937E-02
 RMS gradient           =       2.032E-02
 Gradient time:  CPU 5.68 s  wall 0.71 s
 Geometry Optimization Parameters
   NAtoms,    NIC,     NZ,  NCons,   NDum,   NFix, NCnnct, MaxDiis
       16     734      20       0       0       0       0       0


** GEOMETRY OPTIMIZATION IN DELOCALIZED INTERNAL COORDINATES **
   Searching for a Minimum

   Optimization Cycle:   1

                       Coordinates (Angstroms)
     ATOM                X               Y               Z
      1  C         0.0000000000    1.4000000000    0.0000000000
      2  C         0.0000000000   -1.4000000000    0.0000000000
      3  C         1.2000000000   -0.7700000000    0.0000000000
      4  C         1.2000000000    0.7700000000    0.0000000000
      5  C         0.7119575284   -0.7000000000   -4.0377117874
      6  C         0.7119575284    0.7000000000   -4.0377117874
      7  H         2.1112230668   -1.3439576932    0.0815174143
      8  H         2.1112230668    1.3439576932    0.0815174143
      9  H        -0.0073515082    2.4767723243    0.0831102695
     10  H        -0.0073515082   -2.4767723243    0.0831102695
     11  H        -0.8897523450    0.7960088258   -0.0996766074
     12  H        -0.8897523450   -0.7960088258   -0.0996766074
     13  H        -0.2091333054   -1.2070292878   -4.2845173324
     14  H        -0.2091333054    1.2070292878   -4.2845173324
     15  H         1.6632180475   -1.2070292878   -3.9711931719
     16  H         1.6632180475    1.2070292878   -3.9711931719
   Point Group: c1    Number of degrees of freedom:    42


   Energy is   -234.562411154


 Attempting to Generate Delocalized Internal Coordinates

 21 Hessian modes will be used to form the next step
  Hessian Eigenvalues:
     0.005480    0.006132    0.009774    0.012007    0.013241    0.018077
     0.025506    0.033590    0.040381    0.045264    0.048805    0.057910
     0.064334    0.146673    0.220810    0.222356    0.247098    0.293312
     0.295370    0.324345    0.359943

 Minimum Search - Taking Simple RFO Step
 Searching for Lamda that Minimizes Along All modes
 Value Taken    Lamda =  -0.01997445
 Calculated Step too Large.  Step scaled by  0.493548
 Step Taken.  Stepsize is  0.300000

                             Maximum     Tolerance    Cnvgd?
         Gradient           0.032010      0.000300      NO
         Displacement       0.124826      0.001200      NO
         Energy change     *********      0.000001      NO


 New Cartesian Coordinates Obtained by Inverse Iteration

 Displacement from previous Coordinates is:  0.188792
 ----------------------------------------------------------------
             Standard Nuclear Orientation (Angstroms)
    I     Atom           X                Y                Z
 ----------------------------------------------------------------
    1      C       0.0085394864     1.4212238425    -0.0021633952
    2      C       0.0085394864    -1.4212238425    -0.0021633952
    3      C       1.1880011004    -0.7640766155     0.0026612523
    4      C       1.1880011004     0.7640766155     0.0026612523
    5      C       0.7075631235    -0.6851183722    -4.0365573060
    6      C       0.7075631235     0.6851183722    -4.0365573060
    7      H       2.1081234878    -1.3287854238     0.0842105012
    8      H       2.1081234878     1.3287854238     0.0842105012
    9      H       0.0104413218     2.5004597357     0.0737641798
   10      H       0.0104413218    -2.5004597357     0.0737641798
   11      H      -0.8982240517     0.8444394889    -0.0981521086
   12      H      -0.8982240517    -0.8444394889    -0.0981521086
   13      H      -0.2072893103    -1.2082060753    -4.2837463007
   14      H      -0.2072893103     1.2082060753    -4.2837463007
   15      H       1.6630063263    -1.1872892524    -3.9684880381
   16      H       1.6630063263     1.1872892524    -3.9684880381
 ----------------------------------------------------------------
 Nuclear Repulsion Energy =   196.0026065068 hartrees
 There are       23 alpha and       23 beta electrons
 Applying Cartesian multipole field
    Component          Value
    ---------          -----
     (2,0,0)        1.00000E-11
     (0,2,0)        2.00000E-11
     (0,0,2)       -3.00000E-11
 Nucleus-field energy     =    -0.0000000226 hartrees
 Requested basis set is 6-31G(d,p)
 There are 54 shells and 140 basis functions
 A cutoff of  1.0D-11 yielded   1196 shell pairs
 There are      8279 function pairs
 Smallest overlap matrix eigenvalue = 2.57E-03
 Guess MOs from SCF MO coefficient file

 -----------------------------------------------------------------------
  General SCF calculation program by
  Eric Jon Sundstrom, Paul Horn, Yuezhi Mao, Dmitri Zuev, Alec White,
  David Stuck, Shaama M.S., Shane Yost, Joonho Lee, David Small,
  Daniel Levine, Susi Lehtola, Hugh Burton, Evgeny Epifanovsky
 -----------------------------------------------------------------------
 Exchange:     0.2000 Hartree-Fock + 0.0800 Slater + 0.7200 B88
 Correlation:  0.1900 VWN1RPA + 0.8100 LYP
 Using SG-1 standard quadrature grid
 using 8 threads for integral computing
 -------------------------------------------------------
 OpenMP Integral computing Module                
 Release: version 1.0, May 2013, Q-Chem Inc. Pittsburgh 
 -------------------------------------------------------
 -------------------------------------------------------
 OpenMP BLAS3 based DFT computing Module                
 Release: version 1.0, May 2013, Q-Chem Inc. Pittsburgh 
 -------------------------------------------------------
 A restricted SCF calculation will be
 performed using DIIS
 SCF converges when DIIS error is below 1.0e-08
 ---------------------------------------
  Cycle       Energy         DIIS error
 ---------------------------------------
    1    -234.5699704720      4.67e-04  
    2    -234.5707919324      1.28e-04  
    3    -234.5708035110      1.06e-04  
    4    -234.5708308724      3.25e-05  
    5    -234.5708334580      7.74e-06  
    6    -234.5708336161      6.77e-07  
    7    -234.5708336174      1.20e-07  
    8    -234.5708336174      2.81e-08  
    9    -234.5708336174      9.46e-09  Convergence criterion met
 ---------------------------------------
 SCF time:   CPU 11.85s  wall 1.00s 
 SCF   energy in the final basis set =     -234.5708336174
 Total energy in the final basis set =     -234.5708336174
 
 --------------------------------------------------------------
 
                    Orbital Energies (a.u.)
 --------------------------------------------------------------
 
 Alpha MOs
 -- Occupied --
-10.193 -10.192 -10.182 -10.181 -10.177 -10.177  -0.794  -0.744
 -0.716  -0.607  -0.569  -0.521  -0.495  -0.466  -0.427  -0.407
 -0.393  -0.358  -0.358  -0.349  -0.310  -0.254  -0.221
 -- Virtual --
 -0.026   0.014   0.085   0.112   0.115   0.119   0.151   0.157
  0.167   0.183   0.213   0.237   0.246   0.290   0.315   0.338
  0.435   0.463   0.484   0.485   0.560   0.569   0.572   0.583
  0.586   0.627   0.644   0.663   0.679   0.683   0.687   0.700
  0.712   0.825   0.826   0.845   0.847   0.862   0.887   0.908
  0.921   0.925   0.958   0.986   1.061   1.065   1.113   1.167
  1.213   1.234   1.348   1.359   1.386   1.398   1.418   1.460
  1.481   1.497   1.556   1.718   1.836   1.864   1.873   1.881
  1.928   1.950   1.955   1.962   1.963   1.984   2.026   2.044
  2.105   2.144   2.180   2.254   2.267   2.276   2.351   2.384
  2.386   2.417   2.455   2.471   2.488   2.494   2.516   2.518
  2.589   2.607   2.627   2.656   2.704   2.712   2.722   2.763
  2.770   2.830   2.905   2.914   3.072   3.238   3.246   3.316
  3.332   3.452   3.502   3.509   3.540   3.672   3.785   4.118
  4.182   4.234   4.374   4.507   4.645
 --------------------------------------------------------------
 
          Ground-State Mulliken Net Atomic Charges

     Atom                 Charge (a.u.)
  ----------------------------------------
      1 C                    -0.224189
      2 C                    -0.224189
      3 C                    -0.051066
      4 C                    -0.051066
      5 C                    -0.201746
      6 C                    -0.201746
      7 H                     0.086174
      8 H                     0.086174
      9 H                     0.097132
     10 H                     0.097132
     11 H                     0.093185
     12 H                     0.093185
     13 H                     0.100299
     14 H                     0.100299
     15 H                     0.100211
     16 H                     0.100211
  ----------------------------------------
  Sum of atomic charges =    -0.000000

 -----------------------------------------------------------------
                    Cartesian Multipole Moments
 -----------------------------------------------------------------
    Charge (ESU x 10^10)
                -0.0000
    Dipole Moment (Debye)
         X       0.1885      Y       0.0000      Z      -0.1273
       Tot       0.2274
    Quadrupole Moments (Debye-Ang)
        XX     -34.4581     XY      -0.0000     YY     -35.4439
        XZ       0.5680     YZ      -0.0000     ZZ     -41.2774
    Octopole Moments (Debye-Ang^2)
       XXX     -62.2789    XXY      -0.0000    XYY     -20.5961
       YYY      -0.0000    XXZ      48.9483    XYZ      -0.0000
       YYZ      51.1222    XZZ     -28.5770    YZZ       0.0000
       ZZZ     171.8840
    Hexadecapole Moments (Debye-Ang^3)
      XXXX    -207.1507   XXXY       0.0000   XXYY     -86.3253
      XYYY      -0.0000   YYYY    -307.0834   XXXZ     102.1457
      XXYZ      -0.0000   XYYZ      36.2686   YYYZ      -0.0000
      XXZZ    -247.1726   XYZZ       0.0000   YYZZ    -270.2817
      XZZZ     143.6967   YZZZ      -0.0000   ZZZZ   -1466.0579
 -----------------------------------------------------------------
 Calculating analytic gradient of the SCF energy
 Gradient of SCF Energy
            1           2           3           4           5           6
    1  -0.0291581  -0.0291581   0.0197645   0.0197645  -0.0013297  -0.0013297
    2  -0.0002639   0.0002639  -0.0227587   0.0227587  -0.0523190   0.0523190
    3   0.0020139   0.0020139  -0.0026576  -0.0026576   0.0095788   0.0095788
            7           8           9          10          11          12
    1  -0.0048735  -0.0048735   0.0072544   0.0072544   0.0069585   0.0069585
    2  -0.0032462   0.0032462  -0.0015395   0.0015395  -0.0119888   0.0119888
    3   0.0003283   0.0003283   0.0019353   0.0019353  -0.0017596  -0.0017596
           13          14          15          16
    1  -0.0011172  -0.0011172   0.0025010   0.0025010
    2   0.0076325  -0.0076325   0.0090449  -0.0090449
    3  -0.0050172  -0.0050172  -0.0044219  -0.0044219
 Max gradient component =       5.232E-02
 RMS gradient           =       1.455E-02
 Gradient time:  CPU 5.47 s  wall 0.69 s
 Geometry Optimization Parameters
   NAtoms,    NIC,     NZ,  NCons,   NDum,   NFix, NCnnct, MaxDiis
       16     734      20       0       0       0       0       0

 Cartesian Hessian Update
 Hessian Updated using BFGS Update


** GEOMETRY OPTIMIZATION IN DELOCALIZED INTERNAL COORDINATES **
   Searching for a Minimum

   Optimization Cycle:   2

                       Coordinates (Angstroms)
     ATOM                X               Y               Z
      1  C         0.0085394864    1.4212238425   -0.0021633952
      2  C         0.0085394864   -1.4212238425   -0.0021633952
      3  C         1.1880011004   -0.7640766155    0.0026612523
      4  C         1.1880011004    0.7640766155    0.0026612523
      5  C         0.7075631235   -0.6851183722   -4.0365573060
      6  C         0.7075631235    0.6851183722   -4.0365573060
      7  H         2.1081234878   -1.3287854238    0.0842105012
      8  H         2.1081234878    1.3287854238    0.0842105012
      9  H         0.0104413218    2.5004597357    0.0737641798
     10  H         0.0104413218   -2.5004597357    0.0737641798
     11  H        -0.8982240517    0.8444394889   -0.0981521086
     12  H        -0.8982240517   -0.8444394889   -0.0981521086
     13  H        -0.2072893103   -1.2082060753   -4.2837463007
     14  H        -0.2072893103    1.2082060753   -4.2837463007
     15  H         1.6630063263   -1.1872892524   -3.9684880381
     16  H         1.6630063263    1.1872892524   -3.9684880381
   Point Group: c1    Number of degrees of freedom:    42


   Energy is   -234.570833617

 Hessian Updated using BFGS Update

 21 Hessian modes will be used to form the next step
  Hessian Eigenvalues:
     0.005481    0.006204    0.009763    0.012616    0.013363    0.019422
     0.024062    0.033665    0.040350    0.043861    0.048696    0.057886
     0.063981    0.138997    0.218371    0.222075    0.247304    0.284849
     0.298471    0.316283    0.360250

 Minimum Search - Taking Simple RFO Step
 Searching for Lamda that Minimizes Along All modes
 Value Taken    Lamda =  -0.01369710
 Calculated Step too Large.  Step scaled by  0.494961
 Step Taken.  Stepsize is  0.300000

                             Maximum     Tolerance    Cnvgd?
         Gradient           0.017617      0.000300      NO
         Displacement       0.142919      0.001200      NO
         Energy change     -0.008422      0.000001      NO


 New Cartesian Coordinates Obtained by Inverse Iteration

 Displacement from previous Coordinates is:  0.148891
 ----------------------------------------------------------------
             Standard Nuclear Orientation (Angstroms)
    I     Atom           X                Y                Z
 ----------------------------------------------------------------
    1      C       0.0174440850     1.4332160429    -0.0038108225
    2      C       0.0174440850    -1.4332160429    -0.0038108225
    3      C       1.1787586517    -0.7535186059     0.0045078826
    4      C       1.1787586517     0.7535186059     0.0045078826
    5      C       0.7039309238    -0.6742419417    -4.0381784285
    6      C       0.7039309238     0.6742419417    -4.0381784285
    7      H       2.1078826479    -1.3076601117     0.0862199128
    8      H       2.1078826479     1.3076601117     0.0862199128
    9      H       0.0227124288     2.5138854306     0.0665837020
   10      H       0.0227124288    -2.5138854306     0.0665837020
   11      H      -0.9080025649     0.8819784389    -0.0968159292
   12      H      -0.9080025649    -0.8819784389    -0.0968159292
   13      H      -0.2038566840    -1.2154162090    -4.2815133583
   14      H      -0.2038566840     1.2154162090    -4.2815133583
   15      H       1.6612919959    -1.1761772023    -3.9654641742
   16      H       1.6612919959     1.1761772023    -3.9654641742
 ----------------------------------------------------------------
 Nuclear Repulsion Energy =   196.4202221635 hartrees
 There are       23 alpha and       23 beta electrons
 Applying Cartesian multipole field
    Component          Value
    ---------          -----
     (2,0,0)        1.00000E-11
     (0,2,0)        2.00000E-11
     (0,0,2)       -3.00000E-11
 Nucleus-field energy     =    -0.0000000226 hartrees
 Requested basis set is 6-31G(d,p)
 There are 54 shells and 140 basis functions
 A cutoff of  1.0D-11 yielded   1196 shell pairs
 There are      8279 function pairs
 Smallest overlap matrix eigenvalue = 2.50E-03
 Guess MOs from SCF MO coefficient file

 -----------------------------------------------------------------------
  General SCF calculation program by
  Eric Jon Sundstrom, Paul Horn, Yuezhi Mao, Dmitri Zuev, Alec White,
  David Stuck, Shaama M.S., Shane Yost, Joonho Lee, David Small,
  Daniel Levine, Susi Lehtola, Hugh Burton, Evgeny Epifanovsky
 -----------------------------------------------------------------------
 Exchange:     0.2000 Hartree-Fock + 0.0800 Slater + 0.7200 B88
 Correlation:  0.1900 VWN1RPA + 0.8100 LYP
 Using SG-1 standard quadrature grid
 using 8 threads for integral computing
 -------------------------------------------------------
 OpenMP Integral computing Module                
 Release: version 1.0, May 2013, Q-Chem Inc. Pittsburgh 
 -------------------------------------------------------
 -------------------------------------------------------
 OpenMP BLAS3 based DFT computing Module                
 Release: version 1.0, May 2013, Q-Chem Inc. Pittsburgh 
 -------------------------------------------------------
 A restricted SCF calculation will be
 performed using DIIS
 SCF converges when DIIS error is below 1.0e-08
 ---------------------------------------
  Cycle       Energy         DIIS error
 ---------------------------------------
    1    -234.5758950088      4.10e-04  
    2    -234.5765286573      1.32e-04  
    3    -234.5765060288      1.59e-04  
    4    -234.5765680112      4.40e-05  
    5    -234.5765729421      4.70e-06  
    6    -234.5765730026      4.55e-07  
    7    -234.5765730031      6.81e-08  
    8    -234.5765730032      2.06e-08  
    9    -234.5765730032      2.90e-09  Convergence criterion met
 ---------------------------------------
 SCF time:   CPU 11.85s  wall 1.00s 
 SCF   energy in the final basis set =     -234.5765730032
 Total energy in the final basis set =     -234.5765730032
 
 --------------------------------------------------------------
 
                    Orbital Energies (a.u.)
 --------------------------------------------------------------
 
 Alpha MOs
 -- Occupied --
-10.191 -10.191 -10.180 -10.179 -10.177 -10.177  -0.797  -0.748
 -0.717  -0.608  -0.567  -0.521  -0.494  -0.467  -0.428  -0.408
 -0.397  -0.356  -0.354  -0.350  -0.312  -0.257  -0.222
 -- Virtual --
 -0.026   0.018   0.089   0.110   0.115   0.119   0.149   0.157
  0.167   0.185   0.213   0.234   0.248   0.293   0.322   0.341
  0.438   0.462   0.479   0.484   0.561   0.564   0.573   0.584
  0.588   0.627   0.644   0.665   0.680   0.688   0.692   0.700
  0.720   0.823   0.827   0.839   0.848   0.861   0.884   0.910
  0.921   0.935   0.954   0.982   1.063   1.067   1.119   1.169
  1.218   1.230   1.343   1.357   1.383   1.401   1.418   1.463
  1.485   1.501   1.559   1.735   1.833   1.855   1.875   1.883
  1.926   1.955   1.964   1.972   1.988   1.989   2.031   2.049
  2.104   2.141   2.183   2.252   2.263   2.276   2.354   2.378
  2.387   2.421   2.458   2.481   2.483   2.493   2.515   2.520
  2.602   2.617   2.623   2.659   2.713   2.720   2.721   2.766
  2.769   2.858   2.909   2.935   3.082   3.222   3.239   3.306
  3.335   3.435   3.503   3.521   3.531   3.696   3.792   4.122
  4.187   4.235   4.371   4.513   4.650
 --------------------------------------------------------------
 
          Ground-State Mulliken Net Atomic Charges

     Atom                 Charge (a.u.)
  ----------------------------------------
      1 C                    -0.226300
      2 C                    -0.226300
      3 C                    -0.047798
      4 C                    -0.047798
      5 C                    -0.198546
      6 C                    -0.198546
      7 H                     0.085076
      8 H                     0.085076
      9 H                     0.097269
     10 H                     0.097269
     11 H                     0.092956
     12 H                     0.092956
     13 H                     0.098880
     14 H                     0.098880
     15 H                     0.098463
     16 H                     0.098463
  ----------------------------------------
  Sum of atomic charges =    -0.000000

 -----------------------------------------------------------------
                    Cartesian Multipole Moments
 -----------------------------------------------------------------
    Charge (ESU x 10^10)
                -0.0000
    Dipole Moment (Debye)
         X       0.1710      Y       0.0000      Z      -0.1204
       Tot       0.2091
    Quadrupole Moments (Debye-Ang)
        XX     -34.5039     XY      -0.0000     YY     -35.4298
        XZ       0.5605     YZ       0.0000     ZZ     -41.2801
    Octopole Moments (Debye-Ang^2)
       XXX     -62.3548    XXY      -0.0000    XYY     -20.8841
       YYY      -0.0000    XXZ      49.0967    XYZ       0.0000
       YYZ      51.0115    XZZ     -28.4283    YZZ      -0.0000
       ZZZ     171.8899
    Hexadecapole Moments (Debye-Ang^3)
      XXXX    -206.0395   XXXY      -0.0000   XXYY     -86.7215
      XYYY      -0.0000   YYYY    -307.7573   XXXZ     101.8869
      XXYZ       0.0000   XYYZ      36.3625   YYYZ       0.0000
      XXZZ    -247.4699   XYZZ      -0.0000   YYZZ    -270.3434
      XZZZ     142.4614   YZZZ       0.0000   ZZZZ   -1464.7028
 -----------------------------------------------------------------
 Calculating analytic gradient of the SCF energy
 Gradient of SCF Energy
            1           2           3           4           5           6
    1  -0.0196749  -0.0196749   0.0129844   0.0129844  -0.0015440  -0.0015440
    2  -0.0011037   0.0011037  -0.0142673   0.0142673  -0.0285639   0.0285639
    3   0.0021009   0.0021009  -0.0027918  -0.0027918   0.0096052   0.0096052
            7           8           9          10          11          12
    1  -0.0036972  -0.0036972   0.0051389   0.0051389   0.0051989   0.0051989
    2  -0.0035991   0.0035991  -0.0008365   0.0008365  -0.0100919   0.0100919
    3   0.0004892   0.0004892   0.0017140   0.0017140  -0.0016464  -0.0016464
           13          14          15          16
    1  -0.0016671  -0.0016671   0.0032609   0.0032609
    2   0.0060151  -0.0060151   0.0086008  -0.0086008
    3  -0.0051657  -0.0051657  -0.0043056  -0.0043056
 Max gradient component =       2.856E-02
 RMS gradient           =       9.221E-03
 Gradient time:  CPU 5.45 s  wall 0.68 s
 Geometry Optimization Parameters
   NAtoms,    NIC,     NZ,  NCons,   NDum,   NFix, NCnnct, MaxDiis
       16     734      20       0       0       0       0       0

 Cartesian Hessian Update
 Hessian Updated using BFGS Update


** GEOMETRY OPTIMIZATION IN DELOCALIZED INTERNAL COORDINATES **
   Searching for a Minimum

   Optimization Cycle:   3

                       Coordinates (Angstroms)
     ATOM                X               Y               Z
      1  C         0.0174440850    1.4332160429   -0.0038108225
      2  C         0.0174440850   -1.4332160429   -0.0038108225
      3  C         1.1787586517   -0.7535186059    0.0045078826
      4  C         1.1787586517    0.7535186059    0.0045078826
      5  C         0.7039309238   -0.6742419417   -4.0381784285
      6  C         0.7039309238    0.6742419417   -4.0381784285
      7  H         2.1078826479   -1.3076601117    0.0862199128
      8  H         2.1078826479    1.3076601117    0.0862199128
      9  H         0.0227124288    2.5138854306    0.0665837020
     10  H         0.0227124288   -2.5138854306    0.0665837020
     11  H        -0.9080025649    0.8819784389   -0.0968159292
     12  H        -0.9080025649   -0.8819784389   -0.0968159292
     13  H        -0.2038566840   -1.2154162090   -4.2815133583
     14  H        -0.2038566840    1.2154162090   -4.2815133583
     15  H         1.6612919959   -1.1761772023   -3.9654641742
     16  H         1.6612919959    1.1761772023   -3.9654641742
   Point Group: c1    Number of degrees of freedom:    42


   Energy is   -234.576573003

 Hessian Updated using BFGS Update

 21 Hessian modes will be used to form the next step
  Hessian Eigenvalues:
     0.005447    0.005948    0.009743    0.011793    0.012888    0.018556
     0.023423    0.033596    0.040246    0.042742    0.048728    0.057940
     0.063765    0.145096    0.221225    0.224494    0.247432    0.294107
     0.311623    0.350352    0.361084

 Minimum Search - Taking Simple RFO Step
 Searching for Lamda that Minimizes Along All modes
 Value Taken    Lamda =  -0.00933454
 Calculated Step too Large.  Step scaled by  0.451143
 Step Taken.  Stepsize is  0.300000

                             Maximum     Tolerance    Cnvgd?
         Gradient           0.007087      0.000300      NO
         Displacement       0.141887      0.001200      NO
         Energy change     -0.005739      0.000001      NO


 New Cartesian Coordinates Obtained by Inverse Iteration

 Displacement from previous Coordinates is:  0.168288
 ----------------------------------------------------------------
             Standard Nuclear Orientation (Angstroms)
    I     Atom           X                Y                Z
 ----------------------------------------------------------------
    1      C       0.0246571653     1.4514415651    -0.0057532441
    2      C       0.0246571653    -1.4514415651    -0.0057532441
    3      C       1.1695009406    -0.7474445236     0.0069541595
    4      C       1.1695009406     0.7474445236     0.0069541595
    5      C       0.7001804577    -0.6709897534    -4.0405527312
    6      C       0.7001804577     0.6709897534    -4.0405527312
    7      H       2.1070490683    -1.2899253727     0.0887050500
    8      H       2.1070490683     1.2899253727     0.0887050500
    9      H       0.0383326506     2.5329334714     0.0593377350
   10      H       0.0383326506    -2.5329334714     0.0593377350
   11      H      -0.9183176181     0.9276329610    -0.0960834570
   12      H      -0.9183176181    -0.9276329610    -0.0960834570
   13      H      -0.1997457190    -1.2293910465    -4.2788893874
   14      H      -0.1997457190     1.2293910465    -4.2788893874
   15      H       1.6585045387    -1.1731928811    -3.9621893402
   16      H       1.6585045387     1.1731928811    -3.9621893402
 ----------------------------------------------------------------
 Nuclear Repulsion Energy =   196.3470491527 hartrees
 There are       23 alpha and       23 beta electrons
 Applying Cartesian multipole field
    Component          Value
    ---------          -----
     (2,0,0)        1.00000E-11
     (0,2,0)        2.00000E-11
     (0,0,2)       -3.00000E-11
 Nucleus-field energy     =    -0.0000000225 hartrees
 Requested basis set is 6-31G(d,p)
 There are 54 shells and 140 basis functions
 A cutoff of  1.0D-11 yielded   1196 shell pairs
 There are      8245 function pairs
 Smallest overlap matrix eigenvalue = 2.50E-03
 Guess MOs from SCF MO coefficient file

 -----------------------------------------------------------------------
  General SCF calculation program by
  Eric Jon Sundstrom, Paul Horn, Yuezhi Mao, Dmitri Zuev, Alec White,
  David Stuck, Shaama M.S., Shane Yost, Joonho Lee, David Small,
  Daniel Levine, Susi Lehtola, Hugh Burton, Evgeny Epifanovsky
 -----------------------------------------------------------------------
 Exchange:     0.2000 Hartree-Fock + 0.0800 Slater + 0.7200 B88
 Correlation:  0.1900 VWN1RPA + 0.8100 LYP
 Using SG-1 standard quadrature grid
 using 8 threads for integral computing
 -------------------------------------------------------
 OpenMP Integral computing Module                
 Release: version 1.0, May 2013, Q-Chem Inc. Pittsburgh 
 -------------------------------------------------------
 -------------------------------------------------------
 OpenMP BLAS3 based DFT computing Module                
 Release: version 1.0, May 2013, Q-Chem Inc. Pittsburgh 
 -------------------------------------------------------
 A restricted SCF calculation will be
 performed using DIIS
 SCF converges when DIIS error is below 1.0e-08
 ---------------------------------------
  Cycle       Energy         DIIS error
 ---------------------------------------
    1    -234.5797376257      3.60e-04  
    2    -234.5802470647      6.72e-05  
    3    -234.5802315942      1.04e-04  
    4    -234.5802591320      1.85e-05  
    5    -234.5802599751      3.27e-06  
    6    -234.5802600039      3.94e-07  
    7    -234.5802600044      5.30e-08  
    8    -234.5802600044      1.53e-08  
    9    -234.5802600044      4.46e-09  Convergence criterion met
 ---------------------------------------
 SCF time:   CPU 11.81s  wall 2.00s 
 SCF   energy in the final basis set =     -234.5802600044
 Total energy in the final basis set =     -234.5802600044
 
 --------------------------------------------------------------
 
                    Orbital Energies (a.u.)
 --------------------------------------------------------------
 
 Alpha MOs
 -- Occupied --
-10.191 -10.190 -10.179 -10.178 -10.178 -10.178  -0.797  -0.749
 -0.718  -0.610  -0.567  -0.522  -0.492  -0.466  -0.428  -0.409
 -0.400  -0.356  -0.352  -0.350  -0.313  -0.259  -0.222
 -- Virtual --
 -0.027   0.020   0.091   0.109   0.115   0.120   0.148   0.157
  0.166   0.187   0.212   0.230   0.248   0.296   0.325   0.342
  0.439   0.462   0.478   0.484   0.557   0.562   0.572   0.583
  0.590   0.627   0.645   0.665   0.681   0.689   0.693   0.700
  0.722   0.822   0.829   0.837   0.848   0.861   0.882   0.911
  0.922   0.942   0.949   0.978   1.060   1.068   1.119   1.168
  1.217   1.227   1.338   1.355   1.384   1.401   1.417   1.465
  1.489   1.504   1.557   1.744   1.833   1.851   1.878   1.885
  1.922   1.956   1.968   1.974   1.993   2.009   2.032   2.056
  2.098   2.137   2.180   2.248   2.251   2.279   2.357   2.372
  2.388   2.423   2.458   2.476   2.487   2.499   2.512   2.521
  2.608   2.619   2.625   2.657   2.716   2.717   2.728   2.761
  2.769   2.885   2.911   2.951   3.091   3.210   3.235   3.298
  3.336   3.420   3.502   3.519   3.535   3.710   3.795   4.122
  4.189   4.237   4.369   4.513   4.650
 --------------------------------------------------------------
 
          Ground-State Mulliken Net Atomic Charges

     Atom                 Charge (a.u.)
  ----------------------------------------
      1 C                    -0.228158
      2 C                    -0.228158
      3 C                    -0.046015
      4 C                    -0.046015
      5 C                    -0.197666
      6 C                    -0.197666
      7 H                     0.084342
      8 H                     0.084342
      9 H                     0.097823
     10 H                     0.097823
     11 H                     0.093190
     12 H                     0.093190
     13 H                     0.098623
     14 H                     0.098623
     15 H                     0.097860
     16 H                     0.097860
  ----------------------------------------
  Sum of atomic charges =    -0.000000

 -----------------------------------------------------------------
                    Cartesian Multipole Moments
 -----------------------------------------------------------------
    Charge (ESU x 10^10)
                -0.0000
    Dipole Moment (Debye)
         X       0.1543      Y      -0.0000      Z      -0.1113
       Tot       0.1902
    Quadrupole Moments (Debye-Ang)
        XX     -34.5570     XY      -0.0000     YY     -35.3412
        XZ       0.5641     YZ       0.0000     ZZ     -41.3623
    Octopole Moments (Debye-Ang^2)
       XXX     -62.4225    XXY      -0.0000    XYY     -21.0733
       YYY      -0.0000    XXZ      49.3055    XYZ       0.0000
       YYZ      50.7357    XZZ     -28.3676    YZZ      -0.0000
       ZZZ     172.4752
    Hexadecapole Moments (Debye-Ang^3)
      XXXX    -204.8906   XXXY      -0.0000   XXYY     -87.4281
      XYYY      -0.0000   YYYY    -310.9604   XXXZ     101.7283
      XXYZ       0.0000   XYYZ      36.3224   YYYZ       0.0000
      XXZZ    -248.1291   XYZZ      -0.0000   YYZZ    -270.3151
      XZZZ     141.8774   YZZZ       0.0000   ZZZZ   -1468.1428
 -----------------------------------------------------------------
 Calculating analytic gradient of the SCF energy
 Gradient of SCF Energy
            1           2           3           4           5           6
    1  -0.0139351  -0.0139351   0.0095314   0.0095314  -0.0020236  -0.0020236
    2  -0.0000176   0.0000176  -0.0083164   0.0083164  -0.0197260   0.0197260
    3   0.0020694   0.0020694  -0.0027697  -0.0027697   0.0092954   0.0092954
            7           8           9          10          11          12
    1  -0.0030308  -0.0030308   0.0032958   0.0032958   0.0040920   0.0040920
    2  -0.0037156   0.0037156  -0.0004923   0.0004923  -0.0077978   0.0077978
    3   0.0005658   0.0005658   0.0014799   0.0014799  -0.0014731  -0.0014731
           13          14          15          16
    1  -0.0015162  -0.0015162   0.0035866   0.0035866
    2   0.0042426  -0.0042426   0.0077231  -0.0077231
    3  -0.0050351  -0.0050351  -0.0041326  -0.0041326
 Max gradient component =       1.973E-02
 RMS gradient           =       6.762E-03
 Gradient time:  CPU 5.45 s  wall 0.68 s
 Geometry Optimization Parameters
   NAtoms,    NIC,     NZ,  NCons,   NDum,   NFix, NCnnct, MaxDiis
       16     734      20       0       0       0       0       0

 Cartesian Hessian Update
 Hessian Updated using BFGS Update


** GEOMETRY OPTIMIZATION IN DELOCALIZED INTERNAL COORDINATES **
   Searching for a Minimum

   Optimization Cycle:   4

                       Coordinates (Angstroms)
     ATOM                X               Y               Z
      1  C         0.0246571653    1.4514415651   -0.0057532441
      2  C         0.0246571653   -1.4514415651   -0.0057532441
      3  C         1.1695009406   -0.7474445236    0.0069541595
      4  C         1.1695009406    0.7474445236    0.0069541595
      5  C         0.7001804577   -0.6709897534   -4.0405527312
      6  C         0.7001804577    0.6709897534   -4.0405527312
      7  H         2.1070490683   -1.2899253727    0.0887050500
      8  H         2.1070490683    1.2899253727    0.0887050500
      9  H         0.0383326506    2.5329334714    0.0593377350
     10  H         0.0383326506   -2.5329334714    0.0593377350
     11  H        -0.9183176181    0.9276329610   -0.0960834570
     12  H        -0.9183176181   -0.9276329610   -0.0960834570
     13  H        -0.1997457190   -1.2293910465   -4.2788893874
     14  H        -0.1997457190    1.2293910465   -4.2788893874
     15  H         1.6585045387   -1.1731928811   -3.9621893402
     16  H         1.6585045387    1.1731928811   -3.9621893402
   Point Group: c1    Number of degrees of freedom:    42


   Energy is   -234.580260004

 Hessian Updated using BFGS Update

 21 Hessian modes will be used to form the next step
  Hessian Eigenvalues:
     0.005461    0.005764    0.009566    0.012046    0.013127    0.019043
     0.022954    0.033640    0.040184    0.041872    0.048789    0.058065
     0.063498    0.144684    0.221149    0.224981    0.247551    0.294399
     0.312700    0.350617    0.361372

 Minimum Search - Taking Simple RFO Step
 Searching for Lamda that Minimizes Along All modes
 Value Taken    Lamda =  -0.00652830
 Calculated Step too Large.  Step scaled by  0.475469
 Step Taken.  Stepsize is  0.300000

                             Maximum     Tolerance    Cnvgd?
         Gradient           0.005305      0.000300      NO
         Displacement       0.158938      0.001200      NO
         Energy change     -0.003687      0.000001      NO


 New Cartesian Coordinates Obtained by Inverse Iteration

 Displacement from previous Coordinates is:  0.154878
 ----------------------------------------------------------------
             Standard Nuclear Orientation (Angstroms)
    I     Atom           X                Y                Z
 ----------------------------------------------------------------
    1      C       0.0309311606     1.4668217862    -0.0081109068
    2      C       0.0309311606    -1.4668217862    -0.0081109068
    3      C       1.1607540840    -0.7421016545     0.0094879971
    4      C       1.1607540840     0.7421016545     0.0094879971
    5      C       0.6974137582    -0.6684107068    -4.0438753689
    6      C       0.6974137582     0.6684107068    -4.0438753689
    7      H       2.1067782506    -1.2717926276     0.0908971817
    8      H       2.1067782506     1.2717926276     0.0908971817
    9      H       0.0535755629     2.5488811512     0.0514845192
   10      H       0.0535755629    -2.5488811512     0.0514845192
   11      H      -0.9283156032     0.9692616831    -0.0953848764
   12      H      -0.9283156032    -0.9692616831    -0.0953848764
   13      H      -0.1954291206    -1.2418883765    -4.2750138854
   14      H      -0.1954291206     1.2418883765    -4.2750138854
   15      H       1.6544533916    -1.1740021608    -3.9579558759
   16      H       1.6544533916     1.1740021608    -3.9579558759
 ----------------------------------------------------------------
 Nuclear Repulsion Energy =   196.2902482361 hartrees
 There are       23 alpha and       23 beta electrons
 Applying Cartesian multipole field
    Component          Value
    ---------          -----
     (2,0,0)        1.00000E-11
     (0,2,0)        2.00000E-11
     (0,0,2)       -3.00000E-11
 Nucleus-field energy     =    -0.0000000225 hartrees
 Requested basis set is 6-31G(d,p)
 There are 54 shells and 140 basis functions
 A cutoff of  1.0D-11 yielded   1198 shell pairs
 There are      8247 function pairs
 Smallest overlap matrix eigenvalue = 2.50E-03
 Guess MOs from SCF MO coefficient file

 -----------------------------------------------------------------------
  General SCF calculation program by
  Eric Jon Sundstrom, Paul Horn, Yuezhi Mao, Dmitri Zuev, Alec White,
  David Stuck, Shaama M.S., Shane Yost, Joonho Lee, David Small,
  Daniel Levine, Susi Lehtola, Hugh Burton, Evgeny Epifanovsky
 -----------------------------------------------------------------------
 Exchange:     0.2000 Hartree-Fock + 0.0800 Slater + 0.7200 B88
 Correlation:  0.1900 VWN1RPA + 0.8100 LYP
 Using SG-1 standard quadrature grid
 using 8 threads for integral computing
 -------------------------------------------------------
 OpenMP Integral computing Module                
 Release: version 1.0, May 2013, Q-Chem Inc. Pittsburgh 
 -------------------------------------------------------
 -------------------------------------------------------
 OpenMP BLAS3 based DFT computing Module                
 Release: version 1.0, May 2013, Q-Chem Inc. Pittsburgh 
 -------------------------------------------------------
 A restricted SCF calculation will be
 performed using DIIS
 SCF converges when DIIS error is below 1.0e-08
 ---------------------------------------
  Cycle       Energy         DIIS error
 ---------------------------------------
    1    -234.5825227047      3.26e-04  
    2    -234.5829393085      6.26e-05  
    3    -234.5829243255      9.97e-05  
    4    -234.5829498864      1.53e-05  
    5    -234.5829504628      2.95e-06  
    6    -234.5829504863      3.41e-07  
    7    -234.5829504866      4.10e-08  
    8    -234.5829504866      1.36e-08  
    9    -234.5829504866      4.59e-09  Convergence criterion met
 ---------------------------------------
 SCF time:   CPU 11.82s  wall 2.00s 
 SCF   energy in the final basis set =     -234.5829504866
 Total energy in the final basis set =     -234.5829504866
 
 --------------------------------------------------------------
 
                    Orbital Energies (a.u.)
 --------------------------------------------------------------
 
 Alpha MOs
 -- Occupied --
-10.190 -10.190 -10.179 -10.178 -10.178 -10.178  -0.798  -0.750
 -0.719  -0.611  -0.568  -0.522  -0.491  -0.464  -0.429  -0.410
 -0.402  -0.355  -0.351  -0.350  -0.315  -0.259  -0.223
 -- Virtual --
 -0.027   0.021   0.093   0.108   0.115   0.122   0.147   0.157
  0.166   0.188   0.212   0.225   0.249   0.298   0.328   0.344
  0.440   0.461   0.477   0.484   0.551   0.562   0.571   0.583
  0.591   0.627   0.645   0.665   0.681   0.690   0.694   0.700
  0.724   0.821   0.831   0.835   0.848   0.860   0.880   0.913
  0.922   0.943   0.949   0.975   1.058   1.069   1.119   1.167
  1.216   1.224   1.333   1.354   1.384   1.401   1.417   1.467
  1.491   1.506   1.553   1.751   1.833   1.848   1.882   1.890
  1.917   1.955   1.971   1.973   2.002   2.019   2.034   2.065
  2.093   2.133   2.175   2.241   2.243   2.282   2.360   2.368
  2.388   2.424   2.456   2.470   2.493   2.504   2.510   2.522
  2.613   2.614   2.634   2.657   2.713   2.717   2.736   2.752
  2.776   2.906   2.912   2.968   3.103   3.199   3.233   3.291
  3.337   3.405   3.501   3.509   3.544   3.725   3.799   4.123
  4.190   4.239   4.368   4.512   4.651
 --------------------------------------------------------------
 
          Ground-State Mulliken Net Atomic Charges

     Atom                 Charge (a.u.)
  ----------------------------------------
      1 C                    -0.229886
      2 C                    -0.229886
      3 C                    -0.044338
      4 C                    -0.044338
      5 C                    -0.197027
      6 C                    -0.197027
      7 H                     0.083705
      8 H                     0.083705
      9 H                     0.098205
     10 H                     0.098205
     11 H                     0.093479
     12 H                     0.093479
     13 H                     0.098451
     14 H                     0.098451
     15 H                     0.097412
     16 H                     0.097412
  ----------------------------------------
  Sum of atomic charges =    -0.000000

 -----------------------------------------------------------------
                    Cartesian Multipole Moments
 -----------------------------------------------------------------
    Charge (ESU x 10^10)
                -0.0000
    Dipole Moment (Debye)
         X       0.1395      Y      -0.0000      Z      -0.0963
       Tot       0.1695
    Quadrupole Moments (Debye-Ang)
        XX     -34.6006     XY      -0.0000     YY     -35.2608
        XZ       0.5764     YZ       0.0000     ZZ     -41.4915
    Octopole Moments (Debye-Ang^2)
       XXX     -62.4808    XXY      -0.0000    XYY     -21.2247
       YYY      -0.0000    XXZ      49.5580    XYZ       0.0000
       YYZ      50.4310    XZZ     -28.3659    YZZ      -0.0000
       ZZZ     173.4056
    Hexadecapole Moments (Debye-Ang^3)
      XXXX    -203.8021   XXXY      -0.0000   XXYY     -88.0205
      XYYY      -0.0000   YYYY    -313.8613   XXXZ     101.7800
      XXYZ       0.0000   XYYZ      36.2090   YYYZ       0.0000
      XXZZ    -249.0297   XYZZ      -0.0000   YYZZ    -270.1707
      XZZZ     141.7274   YZZZ       0.0000   ZZZZ   -1473.7240
 -----------------------------------------------------------------
 Calculating analytic gradient of the SCF energy
 Gradient of SCF Energy
            1           2           3           4           5           6
    1  -0.0086105  -0.0086105   0.0064840   0.0064840  -0.0025553  -0.0025553
    2   0.0001969  -0.0001969  -0.0033225   0.0033225  -0.0123682   0.0123682
    3   0.0019868   0.0019868  -0.0026717  -0.0026717   0.0086510   0.0086510
            7           8           9          10          11          12
    1  -0.0023642  -0.0023642   0.0017432   0.0017432   0.0027037   0.0027037
    2  -0.0034362   0.0034362  -0.0002993   0.0002993  -0.0058511   0.0058511
    3   0.0006149   0.0006149   0.0012509   0.0012509  -0.0013024  -0.0013024
           13          14          15          16
    1  -0.0009795  -0.0009795   0.0035785   0.0035785
    2   0.0027022  -0.0027022   0.0066468  -0.0066468
    3  -0.0046644  -0.0046644  -0.0038651  -0.0038651
 Max gradient component =       1.237E-02
 RMS gradient           =       4.745E-03
 Gradient time:  CPU 5.45 s  wall 0.68 s
 Geometry Optimization Parameters
   NAtoms,    NIC,     NZ,  NCons,   NDum,   NFix, NCnnct, MaxDiis
       16     734      20       0       0       0       0       0

 Cartesian Hessian Update
 Hessian Updated using BFGS Update


** GEOMETRY OPTIMIZATION IN DELOCALIZED INTERNAL COORDINATES **
   Searching for a Minimum

   Optimization Cycle:   5

                       Coordinates (Angstroms)
     ATOM                X               Y               Z
      1  C         0.0309311606    1.4668217862   -0.0081109068
      2  C         0.0309311606   -1.4668217862   -0.0081109068
      3  C         1.1607540840   -0.7421016545    0.0094879971
      4  C         1.1607540840    0.7421016545    0.0094879971
      5  C         0.6974137582   -0.6684107068   -4.0438753689
      6  C         0.6974137582    0.6684107068   -4.0438753689
      7  H         2.1067782506   -1.2717926276    0.0908971817
      8  H         2.1067782506    1.2717926276    0.0908971817
      9  H         0.0535755629    2.5488811512    0.0514845192
     10  H         0.0535755629   -2.5488811512    0.0514845192
     11  H        -0.9283156032    0.9692616831   -0.0953848764
     12  H        -0.9283156032   -0.9692616831   -0.0953848764
     13  H        -0.1954291206   -1.2418883765   -4.2750138854
     14  H        -0.1954291206    1.2418883765   -4.2750138854
     15  H         1.6544533916   -1.1740021608   -3.9579558759
     16  H         1.6544533916    1.1740021608   -3.9579558759
   Point Group: c1    Number of degrees of freedom:    42


   Energy is   -234.582950487

 Hessian Updated using BFGS Update

 21 Hessian modes will be used to form the next step
  Hessian Eigenvalues:
     0.005160    0.005537    0.009499    0.012052    0.013096    0.018680
     0.022935    0.033628    0.040208    0.041494    0.048914    0.058190
     0.063317    0.148966    0.221157    0.225639    0.247553    0.294671
     0.312814    0.356708    0.363717

 Minimum Search - Taking Simple RFO Step
 Searching for Lamda that Minimizes Along All modes
 Value Taken    Lamda =  -0.00456704
 Calculated Step too Large.  Step scaled by  0.486607
 Step Taken.  Stepsize is  0.300000

                             Maximum     Tolerance    Cnvgd?
         Gradient           0.003749      0.000300      NO
         Displacement       0.163649      0.001200      NO
         Energy change     -0.002690      0.000001      NO


 New Cartesian Coordinates Obtained by Inverse Iteration

 Displacement from previous Coordinates is:  0.152037
 ----------------------------------------------------------------
             Standard Nuclear Orientation (Angstroms)
    I     Atom           X                Y                Z
 ----------------------------------------------------------------
    1      C       0.0359022397     1.4827862793    -0.0108559144
    2      C       0.0359022397    -1.4827862793    -0.0108559144
    3      C       1.1520144500    -0.7391605669     0.0125085626
    4      C       1.1520144500     0.7391605669     0.0125085626
    5      C       0.6956409702    -0.6670643858    -4.0477500583
    6      C       0.6956409702     0.6670643858    -4.0477500583
    7      H       2.1062579120    -1.2555540629     0.0932546570
    8      H       2.1062579120     1.2555540629     0.0932546570
    9      H       0.0698371590     2.5651899443     0.0428539728
   10      H       0.0698371590    -2.5651899443     0.0428539728
   11      H      -0.9374016722     1.0100112748    -0.0948116176
   12      H      -0.9374016722    -1.0100112748    -0.0948116176
   13      H      -0.1917031710    -1.2526987811    -4.2706089751
   14      H      -0.1917031710     1.2526987811    -4.2706089751
   15      H       1.6496135964    -1.1784611488    -3.9530618424
   16      H       1.6496135964     1.1784611488    -3.9530618424
 ----------------------------------------------------------------
 Nuclear Repulsion Energy =   196.1194565096 hartrees
 There are       23 alpha and       23 beta electrons
 Applying Cartesian multipole field
    Component          Value
    ---------          -----
     (2,0,0)        1.00000E-11
     (0,2,0)        2.00000E-11
     (0,0,2)       -3.00000E-11
 Nucleus-field energy     =    -0.0000000225 hartrees
 Requested basis set is 6-31G(d,p)
 There are 54 shells and 140 basis functions
 A cutoff of  1.0D-11 yielded   1196 shell pairs
 There are      8229 function pairs
 Smallest overlap matrix eigenvalue = 2.52E-03
 Guess MOs from SCF MO coefficient file

 -----------------------------------------------------------------------
  General SCF calculation program by
  Eric Jon Sundstrom, Paul Horn, Yuezhi Mao, Dmitri Zuev, Alec White,
  David Stuck, Shaama M.S., Shane Yost, Joonho Lee, David Small,
  Daniel Levine, Susi Lehtola, Hugh Burton, Evgeny Epifanovsky
 -----------------------------------------------------------------------
 Exchange:     0.2000 Hartree-Fock + 0.0800 Slater + 0.7200 B88
 Correlation:  0.1900 VWN1RPA + 0.8100 LYP
 Using SG-1 standard quadrature grid
 using 8 threads for integral computing
 -------------------------------------------------------
 OpenMP Integral computing Module                
 Release: version 1.0, May 2013, Q-Chem Inc. Pittsburgh 
 -------------------------------------------------------
 -------------------------------------------------------
 OpenMP BLAS3 based DFT computing Module                
 Release: version 1.0, May 2013, Q-Chem Inc. Pittsburgh 
 -------------------------------------------------------
 A restricted SCF calculation will be
 performed using DIIS
 SCF converges when DIIS error is below 1.0e-08
 ---------------------------------------
  Cycle       Energy         DIIS error
 ---------------------------------------
    1    -234.5845110616      2.99e-04  
    2    -234.5848648779      4.04e-05  
    3    -234.5848613982      5.80e-05  
    4    -234.5848700217      1.06e-05  
    5    -234.5848702915      2.40e-06  
    6    -234.5848703069      3.63e-07  
    7    -234.5848703072      4.19e-08  
    8    -234.5848703072      1.14e-08  
    9    -234.5848703072      3.94e-09  Convergence criterion met
 ---------------------------------------
 SCF time:   CPU 11.85s  wall 1.00s 
 SCF   energy in the final basis set =     -234.5848703072
 Total energy in the final basis set =     -234.5848703072
 
 --------------------------------------------------------------
 
                    Orbital Energies (a.u.)
 --------------------------------------------------------------
 
 Alpha MOs
 -- Occupied --
-10.190 -10.190 -10.179 -10.179 -10.179 -10.178  -0.798  -0.750
 -0.719  -0.612  -0.569  -0.523  -0.489  -0.463  -0.431  -0.410
 -0.405  -0.355  -0.349  -0.349  -0.315  -0.260  -0.223
 -- Virtual --
 -0.028   0.022   0.094   0.107   0.115   0.123   0.146   0.157
  0.165   0.189   0.212   0.220   0.249   0.300   0.331   0.344
  0.440   0.461   0.476   0.484   0.545   0.563   0.569   0.583
  0.591   0.628   0.646   0.664   0.681   0.691   0.694   0.699
  0.724   0.820   0.832   0.835   0.849   0.860   0.879   0.914
  0.923   0.938   0.954   0.973   1.055   1.071   1.118   1.167
  1.215   1.222   1.328   1.354   1.385   1.401   1.417   1.468
  1.491   1.509   1.549   1.753   1.834   1.846   1.886   1.896
  1.913   1.955   1.971   1.971   2.012   2.023   2.036   2.073
  2.088   2.130   2.168   2.232   2.238   2.285   2.363   2.366
  2.388   2.424   2.454   2.464   2.498   2.507   2.508   2.521
  2.610   2.616   2.642   2.657   2.710   2.715   2.742   2.743
  2.783   2.912   2.920   2.984   3.113   3.190   3.231   3.286
  3.339   3.394   3.498   3.501   3.549   3.738   3.802   4.123
  4.191   4.242   4.367   4.511   4.651
 --------------------------------------------------------------
 
          Ground-State Mulliken Net Atomic Charges

     Atom                 Charge (a.u.)
  ----------------------------------------
      1 C                    -0.231336
      2 C                    -0.231336
      3 C                    -0.043246
      4 C                    -0.043246
      5 C                    -0.196790
      6 C                    -0.196790
      7 H                     0.083223
      8 H                     0.083223
      9 H                     0.098621
     10 H                     0.098621
     11 H                     0.093886
     12 H                     0.093886
     13 H                     0.098424
     14 H                     0.098424
     15 H                     0.097219
     16 H                     0.097219
  ----------------------------------------
  Sum of atomic charges =    -0.000000

 -----------------------------------------------------------------
                    Cartesian Multipole Moments
 -----------------------------------------------------------------
    Charge (ESU x 10^10)
                -0.0000
    Dipole Moment (Debye)
         X       0.1267      Y      -0.0000      Z      -0.0782
       Tot       0.1489
    Quadrupole Moments (Debye-Ang)
        XX     -34.6422     XY      -0.0000     YY     -35.1714
        XZ       0.5967     YZ       0.0000     ZZ     -41.6611
    Octopole Moments (Debye-Ang^2)
       XXX     -62.5310    XXY       0.0000    XYY     -21.3114
       YYY      -0.0000    XXZ      49.8298    XYZ       0.0000
       YYZ      50.1139    XZZ     -28.4189    YZZ      -0.0000
       ZZZ     174.5847
    Hexadecapole Moments (Debye-Ang^3)
      XXXX    -202.7477   XXXY      -0.0000   XXYY     -88.6356
      XYYY      -0.0000   YYYY    -317.2631   XXXZ     101.9729
      XXYZ       0.0000   XYYZ      36.0324   YYYZ       0.0000
      XXZZ    -250.0654   XYZZ      -0.0000   YYZZ    -270.1679
      XZZZ     141.9781   YZZZ       0.0000   ZZZZ   -1481.0504
 -----------------------------------------------------------------
 Calculating analytic gradient of the SCF energy
 Gradient of SCF Energy
            1           2           3           4           5           6
    1  -0.0048644  -0.0048644   0.0043538   0.0043538  -0.0029379  -0.0029379
    2   0.0004331  -0.0004331  -0.0006418   0.0006418  -0.0078514   0.0078514
    3   0.0017901   0.0017901  -0.0024909  -0.0024909   0.0078033   0.0078033
            7           8           9          10          11          12
    1  -0.0017797  -0.0017797   0.0005723   0.0005723   0.0016773   0.0016773
    2  -0.0030122   0.0030122  -0.0001527   0.0001527  -0.0041209   0.0041209
    3   0.0006305   0.0006305   0.0010324   0.0010324  -0.0010787  -0.0010787
           13          14          15          16
    1  -0.0003641  -0.0003641   0.0033428   0.0033428
    2   0.0013382  -0.0013382   0.0054162  -0.0054162
    3  -0.0041627  -0.0041627  -0.0035241  -0.0035241
 Max gradient component =       7.851E-03
 RMS gradient           =       3.482E-03
 Gradient time:  CPU 5.47 s  wall 0.69 s
 Geometry Optimization Parameters
   NAtoms,    NIC,     NZ,  NCons,   NDum,   NFix, NCnnct, MaxDiis
       16     734      20       0       0       0       0       0

 Cartesian Hessian Update
 Hessian Updated using BFGS Update


** GEOMETRY OPTIMIZATION IN DELOCALIZED INTERNAL COORDINATES **
   Searching for a Minimum

   Optimization Cycle:   6

                       Coordinates (Angstroms)
     ATOM                X               Y               Z
      1  C         0.0359022397    1.4827862793   -0.0108559144
      2  C         0.0359022397   -1.4827862793   -0.0108559144
      3  C         1.1520144500   -0.7391605669    0.0125085626
      4  C         1.1520144500    0.7391605669    0.0125085626
      5  C         0.6956409702   -0.6670643858   -4.0477500583
      6  C         0.6956409702    0.6670643858   -4.0477500583
      7  H         2.1062579120   -1.2555540629    0.0932546570
      8  H         2.1062579120    1.2555540629    0.0932546570
      9  H         0.0698371590    2.5651899443    0.0428539728
     10  H         0.0698371590   -2.5651899443    0.0428539728
     11  H        -0.9374016722    1.0100112748   -0.0948116176
     12  H        -0.9374016722   -1.0100112748   -0.0948116176
     13  H        -0.1917031710   -1.2526987811   -4.2706089751
     14  H        -0.1917031710    1.2526987811   -4.2706089751
     15  H         1.6496135964   -1.1784611488   -3.9530618424
     16  H         1.6496135964    1.1784611488   -3.9530618424
   Point Group: c1    Number of degrees of freedom:    42


   Energy is   -234.584870307

 Hessian Updated using BFGS Update

 21 Hessian modes will be used to form the next step
  Hessian Eigenvalues:
     0.004489    0.005513    0.009519    0.012251    0.013113    0.018482
     0.022896    0.033595    0.040499    0.041399    0.049092    0.058332
     0.063179    0.150039    0.221180    0.225952    0.247554    0.294754
     0.312877    0.357314    0.364804

 Minimum Search - Taking Simple RFO Step
 Searching for Lamda that Minimizes Along All modes
 Value Taken    Lamda =  -0.00321052
 Calculated Step too Large.  Step scaled by  0.499841
 Step Taken.  Stepsize is  0.300000

                             Maximum     Tolerance    Cnvgd?
         Gradient           0.002656      0.000300      NO
         Displacement       0.162739      0.001200      NO
         Energy change     -0.001920      0.000001      NO


 New Cartesian Coordinates Obtained by Inverse Iteration

 Displacement from previous Coordinates is:  0.141393
 ----------------------------------------------------------------
             Standard Nuclear Orientation (Angstroms)
    I     Atom           X                Y                Z
 ----------------------------------------------------------------
    1      C       0.0397412015     1.4973332021    -0.0139292220
    2      C       0.0397412015    -1.4973332021    -0.0139292220
    3      C       1.1434489142    -0.7372593191     0.0158279062
    4      C       1.1434489142     0.7372593190     0.0158279062
    5      C       0.6951192137    -0.6659194459    -4.0521020391
    6      C       0.6951192137     0.6659194459    -4.0521020391
    7      H       2.1054789697    -1.2402525718     0.0956631633
    8      H       2.1054789696     1.2402525718     0.0956631633
    9      H       0.0865653203     2.5798188552     0.0336862185
   10      H       0.0865653202    -2.5798188552     0.0336862185
   11      H      -0.9454271846     1.0471176796    -0.0944607702
   12      H      -0.9454271846    -1.0471176795    -0.0944607702
   13      H      -0.1889919330    -1.2600852345    -4.2656920141
   14      H      -0.1889919330     1.2600852345    -4.2656920141
   15      H       1.6442269824    -1.1854301572    -3.9474644579
   16      H       1.6442269824     1.1854301572    -3.9474644579
 ----------------------------------------------------------------
 Nuclear Repulsion Energy =   195.9461511568 hartrees
 There are       23 alpha and       23 beta electrons
 Applying Cartesian multipole field
    Component          Value
    ---------          -----
     (2,0,0)        1.00000E-11
     (0,2,0)        2.00000E-11
     (0,0,2)       -3.00000E-11
 Nucleus-field energy     =    -0.0000000225 hartrees
 Requested basis set is 6-31G(d,p)
 There are 54 shells and 140 basis functions
 A cutoff of  1.0D-11 yielded   1192 shell pairs
 There are      8133 function pairs
 Smallest overlap matrix eigenvalue = 2.55E-03
 Guess MOs from SCF MO coefficient file

 -----------------------------------------------------------------------
  General SCF calculation program by
  Eric Jon Sundstrom, Paul Horn, Yuezhi Mao, Dmitri Zuev, Alec White,
  David Stuck, Shaama M.S., Shane Yost, Joonho Lee, David Small,
  Daniel Levine, Susi Lehtola, Hugh Burton, Evgeny Epifanovsky
 -----------------------------------------------------------------------
 Exchange:     0.2000 Hartree-Fock + 0.0800 Slater + 0.7200 B88
 Correlation:  0.1900 VWN1RPA + 0.8100 LYP
 Using SG-1 standard quadrature grid
 using 8 threads for integral computing
 -------------------------------------------------------
 OpenMP Integral computing Module                
 Release: version 1.0, May 2013, Q-Chem Inc. Pittsburgh 
 -------------------------------------------------------
 -------------------------------------------------------
 OpenMP BLAS3 based DFT computing Module                
 Release: version 1.0, May 2013, Q-Chem Inc. Pittsburgh 
 -------------------------------------------------------
 A restricted SCF calculation will be
 performed using DIIS
 SCF converges when DIIS error is below 1.0e-08
 ---------------------------------------
  Cycle       Energy         DIIS error
 ---------------------------------------
    1    -234.5859469555      2.75e-04  
    2    -234.5862487196      3.22e-05  
    3    -234.5862485833      3.87e-05  
    4    -234.5862523208      9.79e-06  
    5    -234.5862525536      2.13e-06  
    6    -234.5862525655      3.81e-07  
    7    -234.5862525659      3.99e-08  
    8    -234.5862525659      1.05e-08  
    9    -234.5862525659      3.49e-09  Convergence criterion met
 ---------------------------------------
 SCF time:   CPU 11.81s  wall 1.00s 
 SCF   energy in the final basis set =     -234.5862525659
 Total energy in the final basis set =     -234.5862525659
 
 --------------------------------------------------------------
 
                    Orbital Energies (a.u.)
 --------------------------------------------------------------
 
 Alpha MOs
 -- Occupied --
-10.190 -10.190 -10.179 -10.179 -10.179 -10.178  -0.797  -0.750
 -0.720  -0.613  -0.570  -0.523  -0.488  -0.462  -0.432  -0.411
 -0.407  -0.355  -0.348  -0.348  -0.315  -0.260  -0.224
 -- Virtual --
 -0.028   0.022   0.095   0.106   0.115   0.124   0.146   0.156
  0.164   0.191   0.211   0.215   0.249   0.302   0.333   0.344
  0.439   0.461   0.476   0.485   0.541   0.563   0.567   0.583
  0.590   0.628   0.647   0.664   0.681   0.692   0.694   0.699
  0.725   0.818   0.834   0.834   0.849   0.859   0.877   0.915
  0.923   0.934   0.957   0.971   1.052   1.072   1.117   1.167
  1.213   1.222   1.324   1.353   1.386   1.400   1.418   1.469
  1.491   1.510   1.546   1.755   1.834   1.845   1.889   1.901
  1.910   1.955   1.969   1.970   2.022   2.025   2.040   2.079
  2.085   2.127   2.161   2.225   2.233   2.288   2.365   2.366
  2.389   2.423   2.451   2.459   2.503   2.505   2.511   2.520
  2.608   2.620   2.649   2.659   2.707   2.713   2.731   2.750
  2.790   2.910   2.929   2.999   3.123   3.183   3.230   3.284
  3.340   3.385   3.489   3.500   3.553   3.751   3.804   4.122
  4.192   4.244   4.367   4.510   4.651
 --------------------------------------------------------------
 
          Ground-State Mulliken Net Atomic Charges

     Atom                 Charge (a.u.)
  ----------------------------------------
      1 C                    -0.232553
      2 C                    -0.232553
      3 C                    -0.042378
      4 C                    -0.042378
      5 C                    -0.196641
      6 C                    -0.196641
      7 H                     0.082801
      8 H                     0.082801
      9 H                     0.098949
     10 H                     0.098949
     11 H                     0.094312
     12 H                     0.094312
     13 H                     0.098373
     14 H                     0.098373
     15 H                     0.097137
     16 H                     0.097137
  ----------------------------------------
  Sum of atomic charges =    -0.000000

 -----------------------------------------------------------------
                    Cartesian Multipole Moments
 -----------------------------------------------------------------
    Charge (ESU x 10^10)
                -0.0000
    Dipole Moment (Debye)
         X       0.1158      Y      -0.0000      Z      -0.0570
       Tot       0.1290
    Quadrupole Moments (Debye-Ang)
        XX     -34.6780     XY       0.0000     YY     -35.0930
        XZ       0.6254     YZ       0.0000     ZZ     -41.8582
    Octopole Moments (Debye-Ang^2)
       XXX     -62.5775    XXY       0.0000    XYY     -21.3460
       YYY      -0.0000    XXZ      50.1044    XYZ       0.0000
       YYZ      49.8267    XZZ     -28.5246    YZZ      -0.0000
       ZZZ     175.9402
    Hexadecapole Moments (Debye-Ang^3)
      XXXX    -201.7648   XXXY       0.0000   XXYY     -89.1770
      XYYY       0.0000   YYYY    -320.5076   XXXZ     102.3085
      XXYZ      -0.0000   XYYZ      35.8227   YYYZ       0.0000
      XXZZ    -251.1582   XYZZ      -0.0000   YYZZ    -270.3183
      XZZZ     142.6192   YZZZ       0.0000   ZZZZ   -1489.4746
 -----------------------------------------------------------------
 Calculating analytic gradient of the SCF energy
 Gradient of SCF Energy
            1           2           3           4           5           6
    1  -0.0021215  -0.0021215   0.0026550   0.0026550  -0.0030920  -0.0030920
    2   0.0003341  -0.0003341   0.0007308  -0.0007308  -0.0039634   0.0039634
    3   0.0015178   0.0015178  -0.0022519  -0.0022519   0.0067730   0.0067730
            7           8           9          10          11          12
    1  -0.0012486  -0.0012486  -0.0002027  -0.0002027   0.0008802   0.0008802
    2  -0.0024243   0.0024243  -0.0000406   0.0000406  -0.0028148   0.0028148
    3   0.0006224   0.0006224   0.0008345   0.0008345  -0.0008350  -0.0008350
           13          14          15          16
    1   0.0002060   0.0002060   0.0029237   0.0029237
[...]
    1   0.0000060   0.0000060  -0.0000012  -0.0000012  -0.0000138  -0.0000138
    2  -0.0000131   0.0000131  -0.0000040   0.0000040  -0.0000470   0.0000470
    3  -0.0000987  -0.0000987   0.0000095   0.0000095  -0.0000173  -0.0000173
           13          14          15          16
    1   0.0000004   0.0000004   0.0000163   0.0000163
    2  -0.0000219   0.0000219  -0.0000011   0.0000011
    3   0.0000840   0.0000840   0.0000351   0.0000351
 Max gradient component =       9.869E-05
 RMS gradient           =       3.836E-05
 Gradient time:  CPU 5.35 s  wall 0.67 s
 Geometry Optimization Parameters
   NAtoms,    NIC,     NZ,  NCons,   NDum,   NFix, NCnnct, MaxDiis
       16     734      20       0       0       0       0       0

 Cartesian Hessian Update
 Hessian Updated using BFGS Update


** GEOMETRY OPTIMIZATION IN DELOCALIZED INTERNAL COORDINATES **
   Searching for a Minimum

   Optimization Cycle:  18

                       Coordinates (Angstroms)
     ATOM                X               Y               Z
      1  C         0.0476463963    1.5461108488   -0.0255160067
      2  C         0.0476463964   -1.5461108488   -0.0255160068
      3  C         1.1113973977   -0.7353962363    0.0465760598
      4  C         1.1113973977    0.7353962363    0.0465760599
      5  C         0.7100404902   -0.6650375567   -4.0855997825
      6  C         0.7100404903    0.6650375568   -4.0855997825
      7  H         2.0971188726   -1.1936573293    0.1138915184
      8  H         2.0971188726    1.1936573294    0.1138915184
      9  H         0.1632012278    2.6249738042   -0.0159877169
     10  H         0.1632012279   -2.6249738042   -0.0159877169
     11  H        -0.9686537902    1.1689462251   -0.0967926646
     12  H        -0.9686537901   -1.1689462251   -0.0967926646
     13  H        -0.1990208205   -1.2387244052   -4.2448073109
     14  H        -0.1990208204    1.2387244053   -4.2448073109
     15  H         1.6184317098   -1.2377764686   -3.9202353119
     16  H         1.6184317100    1.2377764685   -3.9202353119
   Point Group: c1    Number of degrees of freedom:    42


   Energy is   -234.588875297

 Hessian Updated using BFGS Update

 21 Hessian modes will be used to form the next step
  Hessian Eigenvalues:
     0.001116    0.002786    0.007386    0.010101    0.012140    0.013111
     0.018863    0.026023    0.033017    0.040905    0.046779    0.054962
     0.062688    0.149533    0.220505    0.223599    0.247601    0.294408
     0.311985    0.348749    0.360668

 Minimum Search - Taking Simple RFO Step
 Searching for Lamda that Minimizes Along All modes
 Value Taken    Lamda =  -0.00000120
 Step Taken.  Stepsize is  0.023952

                             Maximum     Tolerance    Cnvgd?
         Gradient           0.000063      0.000300     YES
         Displacement       0.017921      0.001200      NO
         Energy change     -0.000001      0.000001      NO


 New Cartesian Coordinates Obtained by Inverse Iteration

 Displacement from previous Coordinates is:  0.010409
 ----------------------------------------------------------------
             Standard Nuclear Orientation (Angstroms)
    I     Atom           X                Y                Z
 ----------------------------------------------------------------
    1      C       0.0477810193     1.5465835781    -0.0248726820
    2      C       0.0477810193    -1.5465835781    -0.0248726820
    3      C       1.1111115030    -0.7353949726     0.0479857782
    4      C       1.1111115030     0.7353949727     0.0479857782
    5      C       0.7097366538    -0.6650178442    -4.0873977635
    6      C       0.7097366539     0.6650178442    -4.0873977635
    7      H       2.0970231601    -1.1932362670     0.1155074092
    8      H       2.0970231601     1.1932362671     0.1155074093
    9      H       0.1639211635     2.6253902091    -0.0159309722
   10      H       0.1639211636    -2.6253902091    -0.0159309723
   11      H      -0.9687592912     1.1700500401    -0.0961539459
   12      H      -0.9687592911    -1.1700500402    -0.0961539459
   13      H      -0.1989359060    -1.2394183599    -4.2461761196
   14      H      -0.1989359058     1.2394183600    -4.2461761196
   15      H       1.6182831813    -1.2373634730    -3.9214329196
   16      H       1.6182831815     1.2373634729    -3.9214329196
 ----------------------------------------------------------------
 Nuclear Repulsion Energy =   194.9345607560 hartrees
 There are       23 alpha and       23 beta electrons
 Applying Cartesian multipole field
    Component          Value
    ---------          -----
     (2,0,0)        1.00000E-11
     (0,2,0)        2.00000E-11
     (0,0,2)       -3.00000E-11
 Nucleus-field energy     =    -0.0000000226 hartrees
 Requested basis set is 6-31G(d,p)
 There are 54 shells and 140 basis functions
 A cutoff of  1.0D-11 yielded   1192 shell pairs
 There are      8133 function pairs
 Smallest overlap matrix eigenvalue = 2.70E-03
 Guess MOs from SCF MO coefficient file

 -----------------------------------------------------------------------
  General SCF calculation program by
  Eric Jon Sundstrom, Paul Horn, Yuezhi Mao, Dmitri Zuev, Alec White,
  David Stuck, Shaama M.S., Shane Yost, Joonho Lee, David Small,
  Daniel Levine, Susi Lehtola, Hugh Burton, Evgeny Epifanovsky
 -----------------------------------------------------------------------
 Exchange:     0.2000 Hartree-Fock + 0.0800 Slater + 0.7200 B88
 Correlation:  0.1900 VWN1RPA + 0.8100 LYP
 Using SG-1 standard quadrature grid
 using 8 threads for integral computing
 -------------------------------------------------------
 OpenMP Integral computing Module                
 Release: version 1.0, May 2013, Q-Chem Inc. Pittsburgh 
 -------------------------------------------------------
 -------------------------------------------------------
 OpenMP BLAS3 based DFT computing Module                
 Release: version 1.0, May 2013, Q-Chem Inc. Pittsburgh 
 -------------------------------------------------------
 A restricted SCF calculation will be
 performed using DIIS
 SCF converges when DIIS error is below 1.0e-08
 ---------------------------------------
  Cycle       Energy         DIIS error
 ---------------------------------------
    1    -234.5888754754      1.25e-05  
    2    -234.5888762130      1.27e-06  
    3    -234.5888762220      5.62e-07  
    4    -234.5888762224      4.11e-07  
    5    -234.5888762228      9.01e-08  
    6    -234.5888762229      2.40e-08  
    7    -234.5888762229      2.49e-09  Convergence criterion met
 ---------------------------------------
 SCF time:   CPU 9.11s  wall 1.00s 
 SCF   energy in the final basis set =     -234.5888762229
 Total energy in the final basis set =     -234.5888762229
 
 --------------------------------------------------------------
 
                    Orbital Energies (a.u.)
 --------------------------------------------------------------
 
 Alpha MOs
 -- Occupied --
-10.190 -10.190 -10.181 -10.181 -10.179 -10.178  -0.797  -0.750
 -0.723  -0.616  -0.572  -0.524  -0.485  -0.459  -0.434  -0.414
 -0.411  -0.357  -0.347  -0.345  -0.316  -0.261  -0.226
 -- Virtual --
 -0.029   0.023   0.097   0.102   0.116   0.127   0.145   0.154
  0.163   0.194   0.203   0.212   0.249   0.306   0.336   0.341
  0.433   0.459   0.476   0.488   0.530   0.564   0.564   0.583
  0.588   0.629   0.649   0.660   0.680   0.692   0.694   0.695
  0.725   0.815   0.835   0.840   0.849   0.858   0.874   0.914
  0.918   0.929   0.955   0.970   1.043   1.076   1.115   1.172
  1.206   1.226   1.314   1.354   1.390   1.396   1.422   1.469
  1.482   1.512   1.535   1.751   1.836   1.845   1.894   1.900
  1.916   1.956   1.961   1.965   2.024   2.042   2.050   2.074
  2.083   2.119   2.140   2.212   2.218   2.292   2.370   2.382
  2.390   2.416   2.442   2.451   2.496   2.513   2.516   2.517
  2.602   2.629   2.666   2.682   2.686   2.697   2.708   2.763
  2.808   2.904   2.933   3.029   3.146   3.173   3.234   3.287
  3.343   3.372   3.475   3.496   3.555   3.774   3.804   4.119
  4.191   4.248   4.369   4.504   4.654
 --------------------------------------------------------------
 
          Ground-State Mulliken Net Atomic Charges

     Atom                 Charge (a.u.)
  ----------------------------------------
      1 C                    -0.235076
      2 C                    -0.235076
      3 C                    -0.041519
      4 C                    -0.041519
      5 C                    -0.197274
      6 C                    -0.197274
      7 H                     0.081773
      8 H                     0.081773
      9 H                     0.099682
     10 H                     0.099682
     11 H                     0.096160
     12 H                     0.096160
     13 H                     0.097799
     14 H                     0.097799
     15 H                     0.098456
     16 H                     0.098456
  ----------------------------------------
  Sum of atomic charges =    -0.000000

 -----------------------------------------------------------------
                    Cartesian Multipole Moments
 -----------------------------------------------------------------
    Charge (ESU x 10^10)
                -0.0000
    Dipole Moment (Debye)
         X       0.0716      Y      -0.0000      Z       0.0549
       Tot       0.0903
    Quadrupole Moments (Debye-Ang)
        XX     -34.7530     XY       0.0000     YY     -34.9294
        XZ       0.8921     YZ       0.0000     ZZ     -43.1207
    Octopole Moments (Debye-Ang^2)
       XXX     -63.0232    XXY       0.0000    XYY     -21.0195
       YYY      -0.0000    XXZ      51.0135    XYZ      -0.0000
       YYZ      49.1610    XZZ     -29.9408    YZZ      -0.0000
       ZZZ     184.2263
    Hexadecapole Moments (Debye-Ang^3)
      XXXX    -199.1621   XXXY       0.0000   XXYY     -90.6332
      XYYY      -0.0000   YYYY    -332.6297   XXXZ     104.9280
      XXYZ      -0.0000   XYYZ      34.8046   YYYZ       0.0000
      XXZZ    -257.0128   XYZZ       0.0000   YYZZ    -275.6215
      XZZZ     151.2853   YZZZ      -0.0000   ZZZZ   -1550.2621
 -----------------------------------------------------------------
 Calculating analytic gradient of the SCF energy
 Gradient of SCF Energy
            1           2           3           4           5           6
    1  -0.0000327  -0.0000327   0.0000159   0.0000159  -0.0000184  -0.0000184
    2   0.0000370  -0.0000370  -0.0000358   0.0000358  -0.0000017   0.0000017
    3   0.0000110   0.0000110   0.0000078   0.0000078  -0.0000942  -0.0000942
            7           8           9          10          11          12
    1   0.0000167   0.0000167  -0.0000048  -0.0000048  -0.0000219  -0.0000219
    2   0.0000074  -0.0000074  -0.0000045   0.0000045  -0.0000286   0.0000286
    3  -0.0000957  -0.0000957  -0.0000070  -0.0000070  -0.0000010  -0.0000010
           13          14          15          16
    1   0.0000318   0.0000318   0.0000135   0.0000135
    2  -0.0000695   0.0000695   0.0000015  -0.0000015
    3   0.0001170   0.0001170   0.0000621   0.0000621
 Max gradient component =       1.170E-04
 RMS gradient           =       4.463E-05
 Gradient time:  CPU 5.37 s  wall 0.67 s
 Geometry Optimization Parameters
   NAtoms,    NIC,     NZ,  NCons,   NDum,   NFix, NCnnct, MaxDiis
       16     734      20       0       0       0       0       0

 Cartesian Hessian Update
 Hessian Updated using BFGS Update


** GEOMETRY OPTIMIZATION IN DELOCALIZED INTERNAL COORDINATES **
   Searching for a Minimum

   Optimization Cycle:  19

                       Coordinates (Angstroms)
     ATOM                X               Y               Z
      1  C         0.0477810193    1.5465835781   -0.0248726820
      2  C         0.0477810193   -1.5465835781   -0.0248726820
      3  C         1.1111115030   -0.7353949726    0.0479857782
      4  C         1.1111115030    0.7353949727    0.0479857782
      5  C         0.7097366538   -0.6650178442   -4.0873977635
      6  C         0.7097366539    0.6650178442   -4.0873977635
      7  H         2.0970231601   -1.1932362670    0.1155074092
      8  H         2.0970231601    1.1932362671    0.1155074093
      9  H         0.1639211635    2.6253902091   -0.0159309722
     10  H         0.1639211636   -2.6253902091   -0.0159309723
     11  H        -0.9687592912    1.1700500401   -0.0961539459
     12  H        -0.9687592911   -1.1700500402   -0.0961539459
     13  H        -0.1989359060   -1.2394183599   -4.2461761196
     14  H        -0.1989359058    1.2394183600   -4.2461761196
     15  H         1.6182831813   -1.2373634730   -3.9214329196
     16  H         1.6182831815    1.2373634729   -3.9214329196
   Point Group: c1    Number of degrees of freedom:    42


   Energy is   -234.588876223

 Hessian Updated using BFGS Update

 21 Hessian modes will be used to form the next step
  Hessian Eigenvalues:
     0.000605    0.002316    0.006278    0.010302    0.012993    0.015839
     0.018471    0.025988    0.032393    0.040835    0.046697    0.053156
     0.062844    0.149668    0.220481    0.223597    0.247348    0.294368
     0.312046    0.341054    0.360359

 Minimum Search - Taking Simple RFO Step
 Searching for Lamda that Minimizes Along All modes
 Value Taken    Lamda =  -0.00000199
 Step Taken.  Stepsize is  0.048098

                             Maximum     Tolerance    Cnvgd?
         Gradient           0.000056      0.000300     YES
         Displacement       0.039154      0.001200      NO
         Energy change     -0.000001      0.000001     YES

 Final energy is   -234.588876222864     


 ******************************
 **  OPTIMIZATION CONVERGED  **
 ******************************

                       Coordinates (Angstroms)
     ATOM                X               Y               Z
      1  C         0.0477810193    1.5465835781   -0.0248726820
      2  C         0.0477810193   -1.5465835781   -0.0248726820
      3  C         1.1111115030   -0.7353949726    0.0479857782
      4  C         1.1111115030    0.7353949727    0.0479857782
      5  C         0.7097366538   -0.6650178442   -4.0873977635
      6  C         0.7097366539    0.6650178442   -4.0873977635
      7  H         2.0970231601   -1.1932362670    0.1155074092
      8  H         2.0970231601    1.1932362671    0.1155074093
      9  H         0.1639211635    2.6253902091   -0.0159309722
     10  H         0.1639211636   -2.6253902091   -0.0159309723
     11  H        -0.9687592912    1.1700500401   -0.0961539459
     12  H        -0.9687592911   -1.1700500402   -0.0961539459
     13  H        -0.1989359060   -1.2394183599   -4.2461761196
     14  H        -0.1989359058    1.2394183600   -4.2461761196
     15  H         1.6182831813   -1.2373634730   -3.9214329196
     16  H         1.6182831815    1.2373634729   -3.9214329196

Z-matrix Print:
$molecule
0 1
C 
H  1 1.089128
C  1 1.339405 2 117.867354
H  3 1.085077 1 121.112012 2 0.062449 0
H  3 1.086376 1 122.446255 2 -179.896533 0
C  1 1.470790 2 114.858216 3 -179.998326 0
H  6 1.089128 1 114.858216 2 -0.000000 0
C  6 1.339405 1 127.274430 2 179.998140 0
H  8 1.085077 6 121.112012 1 179.939461 0
H  8 1.086376 6 122.446255 1 -0.101557 0
H  1 4.033049 2 83.964784 3 -84.894851 0
C  11 1.086545 1 88.832263 2 -172.478793 0
H  12 1.086661 11 116.301639 1 -97.273484 0
C  12 1.330036 11 121.786618 1 82.309385 0
H  14 1.086545 12 121.786618 11 -0.000000 0
H  14 1.086661 12 121.910381 11 -179.559479 0
$end

 
 --------------------------------------------------------------
 
                    Orbital Energies (a.u.)
 --------------------------------------------------------------
 
 Alpha MOs
 -- Occupied --
-10.190 -10.190 -10.181 -10.181 -10.179 -10.178  -0.797  -0.750
 -0.723  -0.616  -0.572  -0.524  -0.485  -0.459  -0.434  -0.414
 -0.411  -0.357  -0.347  -0.345  -0.316  -0.261  -0.226
 -- Virtual --
 -0.029   0.023   0.097   0.102   0.116   0.127   0.145   0.154
  0.163   0.194   0.203   0.212   0.249   0.306   0.336   0.341
  0.433   0.459   0.476   0.488   0.530   0.564   0.564   0.583
  0.588   0.629   0.649   0.660   0.680   0.692   0.694   0.695
  0.725   0.815   0.835   0.840   0.849   0.858   0.874   0.914
  0.918   0.929   0.955   0.970   1.043   1.076   1.115   1.172
  1.206   1.226   1.314   1.354   1.390   1.396   1.422   1.469
  1.482   1.512   1.535   1.751   1.836   1.845   1.894   1.900
  1.916   1.956   1.961   1.965   2.024   2.042   2.050   2.074
  2.083   2.119   2.140   2.212   2.218   2.292   2.370   2.382
  2.390   2.416   2.442   2.451   2.496   2.513   2.516   2.517
  2.602   2.629   2.666   2.682   2.686   2.697   2.708   2.763
  2.808   2.904   2.933   3.029   3.146   3.173   3.234   3.287
  3.343   3.372   3.475   3.496   3.555   3.774   3.804   4.119
  4.191   4.248   4.369   4.504   4.654
 --------------------------------------------------------------
 
          Ground-State Mulliken Net Atomic Charges

     Atom                 Charge (a.u.)
  ----------------------------------------
      1 C                    -0.235076
      2 C                    -0.235076
      3 C                    -0.041519
      4 C                    -0.041519
      5 C                    -0.197274
      6 C                    -0.197274
      7 H                     0.081773
      8 H                     0.081773
      9 H                     0.099682
     10 H                     0.099682
     11 H                     0.096160
     12 H                     0.096160
     13 H                     0.097799
     14 H                     0.097799
     15 H                     0.098456
     16 H                     0.098456
  ----------------------------------------
  Sum of atomic charges =    -0.000000

 -----------------------------------------------------------------
                    Cartesian Multipole Moments
 -----------------------------------------------------------------
    Charge (ESU x 10^10)
                -0.0000
    Dipole Moment (Debye)
         X       0.0716      Y      -0.0000      Z       0.0549
       Tot       0.0903
    Quadrupole Moments (Debye-Ang)
        XX     -34.7530     XY       0.0000     YY     -34.9294
        XZ       0.8921     YZ       0.0000     ZZ     -43.1207
    Octopole Moments (Debye-Ang^2)
       XXX     -63.0232    XXY       0.0000    XYY     -21.0195
       YYY      -0.0000    XXZ      51.0135    XYZ      -0.0000
       YYZ      49.1610    XZZ     -29.9408    YZZ      -0.0000
       ZZZ     184.2263
    Hexadecapole Moments (Debye-Ang^3)
      XXXX    -199.1621   XXXY       0.0000   XXYY     -90.6332
      XYYY      -0.0000   YYYY    -332.6297   XXXZ     104.9280
      XXYZ      -0.0000   XYYZ      34.8046   YYYZ       0.0000
      XXZZ    -257.0128   XYZZ       0.0000   YYZZ    -275.6215
      XZZZ     151.2853   YZZZ      -0.0000   ZZZZ   -1550.2621
 -----------------------------------------------------------------
Archival summary:
1\1\node1\OPT\ProcedureUnspecified\6-31G**\610\songzl\ThuApr612:38:382023ThuApr612:38:382023\0\\#,OPT,ProcedureUnspecified,6-31G**,\\0,1\C\H,1,1.08913\C,1,1.33941,2,117.867\H,3,1.08508,1,121.112,2,0.0624486,0\H,3,1.08638,1,122.446,2,-179.897,0\C,1,1.47079,2,114.858,3,-179.998,0\H,6,1.08913,1,114.858,2,-0,0\C,6,1.33941,1,127.274,2,179.998,0\H,8,1.08508,6,121.112,1,179.939,0\H,8,1.08638,6,122.446,1,-0.101557,0\H,1,4.03305,2,83.9648,3,-84.8949,0\C,11,1.08655,1,88.8323,2,-172.479,0\H,12,1.08666,11,116.302,1,-97.2735,0\C,12,1.33004,11,121.787,1,82.3094,0\H,14,1.08655,12,121.787,11,-0,0\H,14,1.08666,12,121.91,11,-179.559,0\\\@

 Total job time:  40.25s(wall), 320.19s(cpu) 
 Thu Apr  6 12:38:38 2023

        *************************************************************
        *                                                           *
        *  Thank you very much for using Q-Chem.  Have a nice day.  *
        *                                                           *
        *************************************************************


